<?xml version="1.0" encoding="UTF-8"?>

<!-- generated on Wed Nov 21 14:11:34 2018 by SUMO gui Version b'v0_31_0-812-g1d4338ab80'
<?xml version="1.0" encoding="UTF-8"?>

<configuration xmlns:xsi="http://www.w3.org/2001/XMLSchema-instance" xsi:noNamespaceSchemaLocation="http://sumo.dlr.de/xsd/sumoConfiguration.xsd">

    <input>
        <net-file value="/Users/barryfan/flow/flow/scenarios/debug/cfg/merge-baseline_20181121-1411331542838293.801555.net.xml"/>
        <route-files value="/Users/barryfan/flow/flow/scenarios/debug/cfg/merge-baseline_20181121-1411331542838293.801555.rou.xml"/>
        <additional-files value="/Users/barryfan/flow/flow/scenarios/debug/cfg/merge-baseline_20181121-1411331542838293.801555.add.xml"/>
    </input>

    <output>
        <emission-output value="./data/merge-baseline_20181121-1411331542838293.801555-emission.xml"/>
    </output>

    <time>
        <begin value="0"/>
        <step-length value="0.2"/>
    </time>

    <processing>
        <lateral-resolution value="0.2"/>
        <time-to-teleport value="-1"/>
    </processing>

    <report>
        <no-step-log value="true"/>
    </report>

    <traci_server>
        <remote-port value="57604"/>
    </traci_server>

    <gui_only>
        <gui-settings-file value="/Users/barryfan/flow/flow/scenarios/debug/cfg/merge-baseline_20181121-1411331542838293.801555.gui.cfg"/>
        <tracker-interval value="0.2"/>
    </gui_only>

</configuration>
-->

<emission-export xmlns:xsi="http://www.w3.org/2001/XMLSchema-instance" xsi:noNamespaceSchemaLocation="http://sumo.dlr.de/xsd/emission_file.xsd">
    <timestep time="0.00">
        <vehicle id="1_0" eclass="HBEFA3/PC_G_EU4" CO2="2624.72" CO="164.78" HC="0.81" NOx="1.20" PMx="0.07" fuel="1.13" electricity="0.00" noise="55.94" route="routemerge" type="1" waiting="0.00" lane="merge_0" pos="2.01" speed="0.00" angle="45.00" x="331.73" y="70.81"/>
        <vehicle id="1_1" eclass="HBEFA3/PC_G_EU4" CO2="2624.72" CO="164.78" HC="0.81" NOx="1.20" PMx="0.07" fuel="1.13" electricity="0.00" noise="55.94" route="routeinflow_highway" type="1" waiting="0.00" lane="inflow_highway_0" pos="29.89" speed="0.00" angle="90.00" x="29.89" y="136.47"/>
        <vehicle id="1_2" eclass="HBEFA3/PC_G_EU4" CO2="2624.72" CO="164.78" HC="0.81" NOx="1.20" PMx="0.07" fuel="1.13" electricity="0.00" noise="55.94" route="routeinflow_highway" type="1" waiting="0.00" lane="inflow_highway_1" pos="24.23" speed="0.00" angle="90.00" x="24.23" y="139.77"/>
        <vehicle id="1_3" eclass="HBEFA3/PC_G_EU4" CO2="2624.72" CO="164.78" HC="0.81" NOx="1.20" PMx="0.07" fuel="1.13" electricity="0.00" noise="55.94" route="routeinflow_merge" type="1" waiting="0.00" lane="inflow_merge_0" pos="41.55" speed="0.00" angle="45.00" x="289.13" y="28.21"/>
        <vehicle id="1_4" eclass="HBEFA3/PC_G_EU4" CO2="2624.72" CO="164.78" HC="0.81" NOx="1.20" PMx="0.07" fuel="1.13" electricity="0.00" noise="55.94" route="routecenter" type="1" waiting="0.00" lane="center_0" pos="67.83" speed="0.00" angle="90.00" x="467.68" y="136.47"/>
        <vehicle id="2_0" eclass="HBEFA3/PC_G_EU4" CO2="2624.72" CO="164.78" HC="0.81" NOx="1.20" PMx="0.07" fuel="1.13" electricity="0.00" noise="55.94" route="routecenter" type="2" waiting="0.00" lane="center_1" pos="55.04" speed="0.00" angle="90.00" x="454.84" y="139.77"/>
        <vehicle id="2_1" eclass="HBEFA3/PC_G_EU4" CO2="2624.72" CO="164.78" HC="0.81" NOx="1.20" PMx="0.07" fuel="1.13" electricity="0.00" noise="55.94" route="routecenter" type="2" waiting="0.00" lane="center_0" pos="177.96" speed="0.00" angle="90.00" x="578.31" y="136.47"/>
        <vehicle id="2_2" eclass="HBEFA3/PC_G_EU4" CO2="2624.72" CO="164.78" HC="0.81" NOx="1.20" PMx="0.07" fuel="1.13" electricity="0.00" noise="55.94" route="routecenter" type="2" waiting="0.00" lane="center_1" pos="185.74" speed="0.00" angle="90.00" x="586.12" y="139.77"/>
        <vehicle id="2_3" eclass="HBEFA3/PC_G_EU4" CO2="2624.72" CO="164.78" HC="0.81" NOx="1.20" PMx="0.07" fuel="1.13" electricity="0.00" noise="55.94" route="routeright" type="2" waiting="0.00" lane="right_0" pos="108.20" speed="0.00" angle="90.00" x="714.02" y="136.47"/>
        <vehicle id="2_4" eclass="HBEFA3/PC_G_EU4" CO2="2624.72" CO="164.78" HC="0.81" NOx="1.20" PMx="0.07" fuel="1.13" electricity="0.00" noise="55.94" route="routeright" type="2" waiting="0.00" lane="right_1" pos="99.14" speed="0.00" angle="90.00" x="705.14" y="139.77"/>
        <vehicle id="3_0" eclass="HBEFA3/PC_G_EU4" CO2="2624.72" CO="164.78" HC="0.81" NOx="1.20" PMx="0.07" fuel="1.13" electricity="0.00" noise="55.94" route="routeright" type="3" waiting="0.00" lane="right_0" pos="219.18" speed="0.00" angle="90.00" x="822.79" y="136.47"/>
        <vehicle id="3_1" eclass="HBEFA3/PC_G_EU4" CO2="2624.72" CO="164.78" HC="0.81" NOx="1.20" PMx="0.07" fuel="1.13" electricity="0.00" noise="55.94" route="routeright" type="3" waiting="0.00" lane="right_1" pos="225.97" speed="0.00" angle="90.00" x="829.44" y="139.77"/>
        <vehicle id="3_2" eclass="HBEFA3/PC_G_EU4" CO2="2624.72" CO="164.78" HC="0.81" NOx="1.20" PMx="0.07" fuel="1.13" electricity="0.00" noise="55.94" route="routeright" type="3" waiting="0.00" lane="right_0" pos="346.30" speed="0.00" angle="90.00" x="947.37" y="136.47"/>
        <vehicle id="3_3" eclass="HBEFA3/PC_G_EU4" CO2="2624.72" CO="164.78" HC="0.81" NOx="1.20" PMx="0.07" fuel="1.13" electricity="0.00" noise="55.94" route="routeright" type="3" waiting="0.00" lane="right_1" pos="345.04" speed="0.00" angle="90.00" x="946.13" y="139.77"/>
        <vehicle id="3_4" eclass="HBEFA3/PC_G_EU4" CO2="2624.72" CO="164.78" HC="0.81" NOx="1.20" PMx="0.07" fuel="1.13" electricity="0.00" noise="55.94" route="routeleft" type="3" waiting="0.00" lane="left_0" pos="68.77" speed="0.00" angle="90.00" x="166.94" y="136.47"/>
        <vehicle id="4_0" eclass="HBEFA3/PC_G_EU4" CO2="2624.72" CO="164.78" HC="0.81" NOx="1.20" PMx="0.07" fuel="1.13" electricity="0.00" noise="55.94" route="routeleft" type="4" waiting="0.00" lane="left_1" pos="61.81" speed="0.00" angle="90.00" x="160.16" y="139.77"/>
        <vehicle id="4_1" eclass="HBEFA3/PC_G_EU4" CO2="2624.72" CO="164.78" HC="0.81" NOx="1.20" PMx="0.07" fuel="1.13" electricity="0.00" noise="55.94" route="routeleft" type="4" waiting="0.00" lane="left_0" pos="186.91" speed="0.00" angle="90.00" x="281.94" y="136.47"/>
        <vehicle id="4_2" eclass="HBEFA3/PC_G_EU4" CO2="2624.72" CO="164.78" HC="0.81" NOx="1.20" PMx="0.07" fuel="1.13" electricity="0.00" noise="55.94" route="routeleft" type="4" waiting="0.00" lane="left_1" pos="184.63" speed="0.00" angle="90.00" x="279.72" y="139.77"/>
        <vehicle id="4_3" eclass="HBEFA3/PC_G_EU4" CO2="2624.72" CO="164.78" HC="0.81" NOx="1.20" PMx="0.07" fuel="1.13" electricity="0.00" noise="55.94" route="routediverge" type="4" waiting="0.00" lane="diverge_0" pos="0.00" speed="0.00" angle="133.24" x="606.41" y="132.68"/>
        <vehicle id="4_4" eclass="HBEFA3/PC_G_EU4" CO2="2624.72" CO="164.78" HC="0.81" NOx="1.20" PMx="0.07" fuel="1.13" electricity="0.00" noise="55.94" route="routediverge" type="4" waiting="0.00" lane="diverge_0" pos="118.55" speed="0.00" angle="135.00" x="685.74" y="53.34"/>
    </timestep>
    <timestep time="0.20">
        <vehicle id="1_0" eclass="HBEFA3/PC_G_EU4" CO2="2624.72" CO="164.78" HC="0.81" NOx="1.20" PMx="0.07" fuel="1.13" electricity="0.00" noise="55.94" route="routemerge" type="1" waiting="0.00" lane="merge_0" pos="2.01" speed="0.00" angle="45.00" x="331.73" y="70.81"/>
        <vehicle id="1_1" eclass="HBEFA3/PC_G_EU4" CO2="2624.72" CO="164.78" HC="0.81" NOx="1.20" PMx="0.07" fuel="1.13" electricity="0.00" noise="55.94" route="routeinflow_highway" type="1" waiting="0.00" lane="inflow_highway_0" pos="29.89" speed="0.00" angle="90.00" x="29.89" y="136.47"/>
        <vehicle id="1_2" eclass="HBEFA3/PC_G_EU4" CO2="2624.72" CO="164.78" HC="0.81" NOx="1.20" PMx="0.07" fuel="1.13" electricity="0.00" noise="55.94" route="routeinflow_highway" type="1" waiting="0.00" lane="inflow_highway_1" pos="24.23" speed="0.00" angle="90.00" x="24.23" y="139.77"/>
        <vehicle id="1_3" eclass="HBEFA3/PC_G_EU4" CO2="2624.72" CO="164.78" HC="0.81" NOx="1.20" PMx="0.07" fuel="1.13" electricity="0.00" noise="55.94" route="routeinflow_merge" type="1" waiting="0.00" lane="inflow_merge_0" pos="41.55" speed="0.00" angle="45.00" x="289.13" y="28.21"/>
        <vehicle id="1_4" eclass="HBEFA3/PC_G_EU4" CO2="2624.72" CO="164.78" HC="0.81" NOx="1.20" PMx="0.07" fuel="1.13" electricity="0.00" noise="55.94" route="routecenter" type="1" waiting="0.00" lane="center_0" pos="67.83" speed="0.00" angle="90.00" x="467.68" y="136.47"/>
        <vehicle id="2_0" eclass="HBEFA3/PC_G_EU4" CO2="2624.72" CO="164.78" HC="0.81" NOx="1.20" PMx="0.07" fuel="1.13" electricity="0.00" noise="55.94" route="routecenter" type="2" waiting="0.00" lane="center_1" pos="55.04" speed="0.00" angle="90.00" x="454.84" y="139.77"/>
        <vehicle id="2_1" eclass="HBEFA3/PC_G_EU4" CO2="2624.72" CO="164.78" HC="0.81" NOx="1.20" PMx="0.07" fuel="1.13" electricity="0.00" noise="55.94" route="routecenter" type="2" waiting="0.00" lane="center_0" pos="177.96" speed="0.00" angle="90.00" x="578.31" y="136.47"/>
        <vehicle id="2_2" eclass="HBEFA3/PC_G_EU4" CO2="2624.72" CO="164.78" HC="0.81" NOx="1.20" PMx="0.07" fuel="1.13" electricity="0.00" noise="55.94" route="routecenter" type="2" waiting="0.00" lane="center_1" pos="185.74" speed="0.00" angle="90.00" x="586.12" y="139.77"/>
        <vehicle id="2_3" eclass="HBEFA3/PC_G_EU4" CO2="2624.72" CO="164.78" HC="0.81" NOx="1.20" PMx="0.07" fuel="1.13" electricity="0.00" noise="55.94" route="routeright" type="2" waiting="0.00" lane="right_0" pos="108.20" speed="0.00" angle="90.00" x="714.02" y="136.47"/>
        <vehicle id="2_4" eclass="HBEFA3/PC_G_EU4" CO2="2624.72" CO="164.78" HC="0.81" NOx="1.20" PMx="0.07" fuel="1.13" electricity="0.00" noise="55.94" route="routeright" type="2" waiting="0.00" lane="right_1" pos="99.14" speed="0.00" angle="90.00" x="705.14" y="139.77"/>
        <vehicle id="3_0" eclass="HBEFA3/PC_G_EU4" CO2="2624.72" CO="164.78" HC="0.81" NOx="1.20" PMx="0.07" fuel="1.13" electricity="0.00" noise="55.94" route="routeright" type="3" waiting="0.00" lane="right_0" pos="219.18" speed="0.00" angle="90.00" x="822.79" y="136.47"/>
        <vehicle id="3_1" eclass="HBEFA3/PC_G_EU4" CO2="2624.72" CO="164.78" HC="0.81" NOx="1.20" PMx="0.07" fuel="1.13" electricity="0.00" noise="55.94" route="routeright" type="3" waiting="0.00" lane="right_1" pos="225.97" speed="0.00" angle="90.00" x="829.44" y="139.77"/>
        <vehicle id="3_2" eclass="HBEFA3/PC_G_EU4" CO2="2624.72" CO="164.78" HC="0.81" NOx="1.20" PMx="0.07" fuel="1.13" electricity="0.00" noise="55.94" route="routeright" type="3" waiting="0.00" lane="right_0" pos="346.30" speed="0.00" angle="90.00" x="947.37" y="136.47"/>
        <vehicle id="3_3" eclass="HBEFA3/PC_G_EU4" CO2="2624.72" CO="164.78" HC="0.81" NOx="1.20" PMx="0.07" fuel="1.13" electricity="0.00" noise="55.94" route="routeright" type="3" waiting="0.00" lane="right_1" pos="345.04" speed="0.00" angle="90.00" x="946.13" y="139.77"/>
        <vehicle id="3_4" eclass="HBEFA3/PC_G_EU4" CO2="2624.72" CO="164.78" HC="0.81" NOx="1.20" PMx="0.07" fuel="1.13" electricity="0.00" noise="55.94" route="routeleft" type="3" waiting="0.00" lane="left_0" pos="68.77" speed="0.00" angle="90.00" x="166.94" y="136.47"/>
        <vehicle id="4_0" eclass="HBEFA3/PC_G_EU4" CO2="2624.72" CO="164.78" HC="0.81" NOx="1.20" PMx="0.07" fuel="1.13" electricity="0.00" noise="55.94" route="routeleft" type="4" waiting="0.00" lane="left_1" pos="61.81" speed="0.00" angle="90.00" x="160.16" y="139.77"/>
        <vehicle id="4_1" eclass="HBEFA3/PC_G_EU4" CO2="2624.72" CO="164.78" HC="0.81" NOx="1.20" PMx="0.07" fuel="1.13" electricity="0.00" noise="55.94" route="routeleft" type="4" waiting="0.00" lane="left_0" pos="186.91" speed="0.00" angle="90.00" x="281.94" y="136.47"/>
        <vehicle id="4_2" eclass="HBEFA3/PC_G_EU4" CO2="2624.72" CO="164.78" HC="0.81" NOx="1.20" PMx="0.07" fuel="1.13" electricity="0.00" noise="55.94" route="routeleft" type="4" waiting="0.00" lane="left_1" pos="184.63" speed="0.00" angle="90.00" x="279.72" y="139.77"/>
        <vehicle id="4_3" eclass="HBEFA3/PC_G_EU4" CO2="2624.72" CO="164.78" HC="0.81" NOx="1.20" PMx="0.07" fuel="1.13" electricity="0.00" noise="55.94" route="routediverge" type="4" waiting="0.00" lane="diverge_0" pos="0.00" speed="0.00" angle="133.24" x="606.41" y="132.68"/>
        <vehicle id="4_4" eclass="HBEFA3/PC_G_EU4" CO2="2624.72" CO="164.78" HC="0.81" NOx="1.20" PMx="0.07" fuel="1.13" electricity="0.00" noise="55.94" route="routediverge" type="4" waiting="0.00" lane="diverge_0" pos="118.55" speed="0.00" angle="135.00" x="685.74" y="53.34"/>
    </timestep>
    <timestep time="0.40">
        <vehicle id="1_0" eclass="HBEFA3/PC_G_EU4" CO2="2650.82" CO="161.81" HC="0.80" NOx="1.21" PMx="0.07" fuel="1.14" electricity="0.00" noise="60.39" route="routemerge" type="1" waiting="0.00" lane="merge_0" pos="2.05" speed="0.20" angle="45.00" x="331.75" y="70.83"/>
        <vehicle id="1_1" eclass="HBEFA3/PC_G_EU4" CO2="2650.81" CO="161.81" HC="0.80" NOx="1.21" PMx="0.07" fuel="1.14" electricity="0.00" noise="60.39" route="routeinflow_highway" type="1" waiting="0.00" lane="inflow_highway_0" pos="29.93" speed="0.20" angle="90.00" x="29.93" y="136.47"/>
        <vehicle id="1_2" eclass="HBEFA3/PC_G_EU4" CO2="2650.81" CO="161.81" HC="0.80" NOx="1.21" PMx="0.07" fuel="1.14" electricity="0.00" noise="60.39" route="routeinflow_highway" type="1" waiting="0.00" lane="inflow_highway_1" pos="24.27" speed="0.20" angle="90.00" x="24.27" y="139.77"/>
        <vehicle id="1_3" eclass="HBEFA3/PC_G_EU4" CO2="2650.73" CO="161.82" HC="0.80" NOx="1.21" PMx="0.07" fuel="1.14" electricity="0.00" noise="60.39" route="routeinflow_merge" type="1" waiting="0.00" lane="inflow_merge_0" pos="41.59" speed="0.20" angle="45.00" x="289.16" y="28.24"/>
        <vehicle id="1_4" eclass="HBEFA3/PC_G_EU4" CO2="2650.80" CO="161.81" HC="0.80" NOx="1.21" PMx="0.07" fuel="1.14" electricity="0.00" noise="60.39" route="routecenter" type="1" waiting="0.00" lane="center_0" pos="67.87" speed="0.20" angle="90.00" x="467.72" y="136.47"/>
        <vehicle id="2_0" eclass="HBEFA3/PC_G_EU4" CO2="2650.81" CO="161.81" HC="0.80" NOx="1.21" PMx="0.07" fuel="1.14" electricity="0.00" noise="60.39" route="routecenter" type="2" waiting="0.00" lane="center_1" pos="55.08" speed="0.20" angle="90.00" x="454.88" y="139.77"/>
        <vehicle id="2_1" eclass="HBEFA3/PC_G_EU4" CO2="2650.31" CO="161.83" HC="0.80" NOx="1.21" PMx="0.07" fuel="1.14" electricity="0.00" noise="60.36" route="routecenter" type="2" waiting="0.00" lane="center_0" pos="178.00" speed="0.20" angle="90.00" x="578.35" y="136.47"/>
        <vehicle id="2_2" eclass="HBEFA3/PC_G_EU4" CO2="2650.80" CO="161.81" HC="0.80" NOx="1.21" PMx="0.07" fuel="1.14" electricity="0.00" noise="60.39" route="routecenter" type="2" waiting="0.00" lane="center_1" pos="185.78" speed="0.20" angle="90.00" x="586.16" y="139.77"/>
        <vehicle id="2_3" eclass="HBEFA3/PC_G_EU4" CO2="2650.80" CO="161.81" HC="0.80" NOx="1.21" PMx="0.07" fuel="1.14" electricity="0.00" noise="60.39" route="routeright" type="2" waiting="0.00" lane="right_0" pos="108.24" speed="0.20" angle="90.00" x="714.06" y="136.47"/>
        <vehicle id="2_4" eclass="HBEFA3/PC_G_EU4" CO2="2650.81" CO="161.81" HC="0.80" NOx="1.21" PMx="0.07" fuel="1.14" electricity="0.00" noise="60.39" route="routeright" type="2" waiting="0.00" lane="right_1" pos="99.18" speed="0.20" angle="90.00" x="705.18" y="139.77"/>
        <vehicle id="3_0" eclass="HBEFA3/PC_G_EU4" CO2="2650.81" CO="161.81" HC="0.80" NOx="1.21" PMx="0.07" fuel="1.14" electricity="0.00" noise="60.39" route="routeright" type="3" waiting="0.00" lane="right_0" pos="219.22" speed="0.20" angle="90.00" x="822.83" y="136.47"/>
        <vehicle id="3_1" eclass="HBEFA3/PC_G_EU4" CO2="2650.80" CO="161.81" HC="0.80" NOx="1.21" PMx="0.07" fuel="1.14" electricity="0.00" noise="60.39" route="routeright" type="3" waiting="0.00" lane="right_1" pos="226.01" speed="0.20" angle="90.00" x="829.48" y="139.77"/>
        <vehicle id="3_2" eclass="HBEFA3/PC_G_EU4" CO2="2650.83" CO="161.81" HC="0.80" NOx="1.21" PMx="0.07" fuel="1.14" electricity="0.00" noise="60.39" route="routeright" type="3" waiting="0.00" lane="right_0" pos="346.34" speed="0.20" angle="90.00" x="947.41" y="136.47"/>
        <vehicle id="3_3" eclass="HBEFA3/PC_G_EU4" CO2="2650.83" CO="161.81" HC="0.80" NOx="1.21" PMx="0.07" fuel="1.14" electricity="0.00" noise="60.39" route="routeright" type="3" waiting="0.00" lane="right_1" pos="345.08" speed="0.20" angle="90.00" x="946.17" y="139.77"/>
        <vehicle id="3_4" eclass="HBEFA3/PC_G_EU4" CO2="2650.80" CO="161.81" HC="0.80" NOx="1.21" PMx="0.07" fuel="1.14" electricity="0.00" noise="60.39" route="routeleft" type="3" waiting="0.00" lane="left_0" pos="68.81" speed="0.20" angle="90.00" x="166.98" y="136.47"/>
        <vehicle id="4_0" eclass="HBEFA3/PC_G_EU4" CO2="2650.81" CO="161.81" HC="0.80" NOx="1.21" PMx="0.07" fuel="1.14" electricity="0.00" noise="60.39" route="routeleft" type="4" waiting="0.00" lane="left_1" pos="61.85" speed="0.20" angle="90.00" x="160.20" y="139.77"/>
        <vehicle id="4_1" eclass="HBEFA3/PC_G_EU4" CO2="2650.82" CO="161.81" HC="0.80" NOx="1.21" PMx="0.07" fuel="1.14" electricity="0.00" noise="60.39" route="routeleft" type="4" waiting="0.00" lane="left_0" pos="186.95" speed="0.20" angle="90.00" x="281.98" y="136.47"/>
        <vehicle id="4_2" eclass="HBEFA3/PC_G_EU4" CO2="2650.82" CO="161.81" HC="0.80" NOx="1.21" PMx="0.07" fuel="1.14" electricity="0.00" noise="60.39" route="routeleft" type="4" waiting="0.00" lane="left_1" pos="184.67" speed="0.20" angle="90.00" x="279.76" y="139.77"/>
        <vehicle id="4_3" eclass="HBEFA3/PC_G_EU4" CO2="2650.80" CO="161.81" HC="0.80" NOx="1.21" PMx="0.07" fuel="1.14" electricity="0.00" noise="60.39" route="routediverge" type="4" waiting="0.00" lane="diverge_0" pos="0.04" speed="0.20" angle="133.36" x="606.44" y="132.65"/>
        <vehicle id="4_4" eclass="HBEFA3/PC_G_EU4" CO2="2650.83" CO="161.81" HC="0.80" NOx="1.21" PMx="0.07" fuel="1.14" electricity="0.00" noise="60.39" route="routediverge" type="4" waiting="0.00" lane="diverge_0" pos="118.59" speed="0.20" angle="135.00" x="685.77" y="53.32"/>
    </timestep>
    <timestep time="0.60">
        <vehicle id="1_0" eclass="HBEFA3/PC_G_EU4" CO2="2677.53" CO="158.90" HC="0.79" NOx="1.22" PMx="0.07" fuel="1.15" electricity="0.00" noise="60.47" route="routemerge" type="1" waiting="0.00" lane="merge_0" pos="2.13" speed="0.40" angle="45.00" x="331.80" y="70.88"/>
        <vehicle id="1_1" eclass="HBEFA3/PC_G_EU4" CO2="2677.51" CO="158.90" HC="0.79" NOx="1.22" PMx="0.07" fuel="1.15" electricity="0.00" noise="60.47" route="routeinflow_highway" type="1" waiting="0.00" lane="inflow_highway_0" pos="30.01" speed="0.40" angle="90.00" x="30.01" y="136.47"/>
        <vehicle id="1_2" eclass="HBEFA3/PC_G_EU4" CO2="2677.51" CO="158.90" HC="0.79" NOx="1.22" PMx="0.07" fuel="1.15" electricity="0.00" noise="60.47" route="routeinflow_highway" type="1" waiting="0.00" lane="inflow_highway_1" pos="24.35" speed="0.40" angle="90.00" x="24.35" y="139.77"/>
        <vehicle id="1_3" eclass="HBEFA3/PC_G_EU4" CO2="2677.32" CO="158.90" HC="0.79" NOx="1.22" PMx="0.07" fuel="1.15" electricity="0.00" noise="60.46" route="routeinflow_merge" type="1" waiting="0.00" lane="inflow_merge_0" pos="41.67" speed="0.40" angle="45.00" x="289.21" y="28.29"/>
        <vehicle id="1_4" eclass="HBEFA3/PC_G_EU4" CO2="2677.49" CO="158.90" HC="0.79" NOx="1.22" PMx="0.07" fuel="1.15" electricity="0.00" noise="60.47" route="routecenter" type="1" waiting="0.00" lane="center_0" pos="67.95" speed="0.40" angle="90.00" x="467.80" y="136.47"/>
        <vehicle id="2_0" eclass="HBEFA3/PC_G_EU4" CO2="2677.51" CO="158.90" HC="0.79" NOx="1.22" PMx="0.07" fuel="1.15" electricity="0.00" noise="60.47" route="routecenter" type="2" waiting="0.00" lane="center_1" pos="55.16" speed="0.40" angle="90.00" x="454.96" y="139.77"/>
        <vehicle id="2_1" eclass="HBEFA3/PC_G_EU4" CO2="2676.33" CO="158.92" HC="0.79" NOx="1.22" PMx="0.07" fuel="1.15" electricity="0.00" noise="60.43" route="routecenter" type="2" waiting="0.00" lane="center_0" pos="178.08" speed="0.40" angle="90.00" x="578.43" y="136.47"/>
        <vehicle id="2_2" eclass="HBEFA3/PC_G_EU4" CO2="2677.50" CO="158.90" HC="0.79" NOx="1.22" PMx="0.07" fuel="1.15" electricity="0.00" noise="60.47" route="routecenter" type="2" waiting="0.00" lane="center_1" pos="185.86" speed="0.40" angle="90.00" x="586.24" y="139.77"/>
        <vehicle id="2_3" eclass="HBEFA3/PC_G_EU4" CO2="2677.49" CO="158.90" HC="0.79" NOx="1.22" PMx="0.07" fuel="1.15" electricity="0.00" noise="60.47" route="routeright" type="2" waiting="0.00" lane="right_0" pos="108.32" speed="0.40" angle="90.00" x="714.14" y="136.47"/>
        <vehicle id="2_4" eclass="HBEFA3/PC_G_EU4" CO2="2677.51" CO="158.90" HC="0.79" NOx="1.22" PMx="0.07" fuel="1.15" electricity="0.00" noise="60.47" route="routeright" type="2" waiting="0.00" lane="right_1" pos="99.26" speed="0.40" angle="90.00" x="705.26" y="139.77"/>
        <vehicle id="3_0" eclass="HBEFA3/PC_G_EU4" CO2="2677.51" CO="158.90" HC="0.79" NOx="1.22" PMx="0.07" fuel="1.15" electricity="0.00" noise="60.47" route="routeright" type="3" waiting="0.00" lane="right_0" pos="219.30" speed="0.40" angle="90.00" x="822.91" y="136.47"/>
        <vehicle id="3_1" eclass="HBEFA3/PC_G_EU4" CO2="2677.50" CO="158.90" HC="0.79" NOx="1.22" PMx="0.07" fuel="1.15" electricity="0.00" noise="60.47" route="routeright" type="3" waiting="0.00" lane="right_1" pos="226.09" speed="0.40" angle="90.00" x="829.56" y="139.77"/>
        <vehicle id="3_2" eclass="HBEFA3/PC_G_EU4" CO2="2677.56" CO="158.90" HC="0.79" NOx="1.22" PMx="0.07" fuel="1.15" electricity="0.00" noise="60.47" route="routeright" type="3" waiting="0.00" lane="right_0" pos="346.42" speed="0.40" angle="90.00" x="947.49" y="136.47"/>
        <vehicle id="3_3" eclass="HBEFA3/PC_G_EU4" CO2="2677.56" CO="158.90" HC="0.79" NOx="1.22" PMx="0.07" fuel="1.15" electricity="0.00" noise="60.47" route="routeright" type="3" waiting="0.00" lane="right_1" pos="345.16" speed="0.40" angle="90.00" x="946.25" y="139.77"/>
        <vehicle id="3_4" eclass="HBEFA3/PC_G_EU4" CO2="2677.50" CO="158.90" HC="0.79" NOx="1.22" PMx="0.07" fuel="1.15" electricity="0.00" noise="60.47" route="routeleft" type="3" waiting="0.00" lane="left_0" pos="68.89" speed="0.40" angle="90.00" x="167.06" y="136.47"/>
        <vehicle id="4_0" eclass="HBEFA3/PC_G_EU4" CO2="2677.50" CO="158.90" HC="0.79" NOx="1.22" PMx="0.07" fuel="1.15" electricity="0.00" noise="60.47" route="routeleft" type="4" waiting="0.00" lane="left_1" pos="61.93" speed="0.40" angle="90.00" x="160.28" y="139.77"/>
        <vehicle id="4_1" eclass="HBEFA3/PC_G_EU4" CO2="2677.53" CO="158.90" HC="0.79" NOx="1.22" PMx="0.07" fuel="1.15" electricity="0.00" noise="60.47" route="routeleft" type="4" waiting="0.00" lane="left_0" pos="187.03" speed="0.40" angle="90.00" x="282.05" y="136.47"/>
        <vehicle id="4_2" eclass="HBEFA3/PC_G_EU4" CO2="2677.53" CO="158.90" HC="0.79" NOx="1.22" PMx="0.07" fuel="1.15" electricity="0.00" noise="60.47" route="routeleft" type="4" waiting="0.00" lane="left_1" pos="184.75" speed="0.40" angle="90.00" x="279.84" y="139.77"/>
        <vehicle id="4_3" eclass="HBEFA3/PC_G_EU4" CO2="2677.50" CO="158.90" HC="0.79" NOx="1.22" PMx="0.07" fuel="1.15" electricity="0.00" noise="60.47" route="routediverge" type="4" waiting="0.00" lane="diverge_0" pos="0.12" speed="0.40" angle="133.62" x="606.49" y="132.60"/>
        <vehicle id="4_4" eclass="HBEFA3/PC_G_EU4" CO2="2677.56" CO="158.90" HC="0.79" NOx="1.22" PMx="0.07" fuel="1.15" electricity="0.00" noise="60.47" route="routediverge" type="4" waiting="0.00" lane="diverge_0" pos="118.67" speed="0.40" angle="135.00" x="685.82" y="53.26"/>
    </timestep>
    <timestep time="0.80">
        <vehicle id="1_0" eclass="HBEFA3/PC_G_EU4" CO2="2704.86" CO="156.03" HC="0.77" NOx="1.23" PMx="0.06" fuel="1.16" electricity="0.00" noise="60.54" route="routemerge" type="1" waiting="0.00" lane="merge_0" pos="2.25" speed="0.60" angle="45.00" x="331.88" y="70.96"/>
        <vehicle id="1_1" eclass="HBEFA3/PC_G_EU4" CO2="2704.83" CO="156.03" HC="0.77" NOx="1.23" PMx="0.06" fuel="1.16" electricity="0.00" noise="60.54" route="routeinflow_highway" type="1" waiting="0.00" lane="inflow_highway_0" pos="30.13" speed="0.60" angle="90.00" x="30.13" y="136.47"/>
        <vehicle id="1_2" eclass="HBEFA3/PC_G_EU4" CO2="2704.83" CO="156.03" HC="0.77" NOx="1.23" PMx="0.06" fuel="1.16" electricity="0.00" noise="60.54" route="routeinflow_highway" type="1" waiting="0.00" lane="inflow_highway_1" pos="24.46" speed="0.60" angle="90.00" x="24.46" y="139.77"/>
        <vehicle id="1_3" eclass="HBEFA3/PC_G_EU4" CO2="2704.49" CO="156.03" HC="0.77" NOx="1.23" PMx="0.06" fuel="1.16" electricity="0.00" noise="60.53" route="routeinflow_merge" type="1" waiting="0.00" lane="inflow_merge_0" pos="41.79" speed="0.60" angle="45.00" x="289.30" y="28.38"/>
        <vehicle id="1_4" eclass="HBEFA3/PC_G_EU4" CO2="2704.79" CO="156.03" HC="0.77" NOx="1.23" PMx="0.06" fuel="1.16" electricity="0.00" noise="60.54" route="routecenter" type="1" waiting="0.00" lane="center_0" pos="68.07" speed="0.60" angle="90.00" x="467.92" y="136.47"/>
        <vehicle id="2_0" eclass="HBEFA3/PC_G_EU4" CO2="2704.82" CO="156.03" HC="0.77" NOx="1.23" PMx="0.06" fuel="1.16" electricity="0.00" noise="60.54" route="routecenter" type="2" waiting="0.00" lane="center_1" pos="55.28" speed="0.60" angle="90.00" x="455.08" y="139.77"/>
        <vehicle id="2_1" eclass="HBEFA3/PC_G_EU4" CO2="2702.76" CO="156.06" HC="0.77" NOx="1.22" PMx="0.06" fuel="1.16" electricity="0.00" noise="60.50" route="routecenter" type="2" waiting="0.00" lane="center_0" pos="178.20" speed="0.59" angle="90.00" x="578.55" y="136.47"/>
        <vehicle id="2_2" eclass="HBEFA3/PC_G_EU4" CO2="2704.81" CO="156.03" HC="0.77" NOx="1.23" PMx="0.06" fuel="1.16" electricity="0.00" noise="60.54" route="routecenter" type="2" waiting="0.00" lane="center_1" pos="185.98" speed="0.60" angle="90.00" x="586.36" y="139.77"/>
        <vehicle id="2_3" eclass="HBEFA3/PC_G_EU4" CO2="2704.79" CO="156.03" HC="0.77" NOx="1.23" PMx="0.06" fuel="1.16" electricity="0.00" noise="60.54" route="routeright" type="2" waiting="0.00" lane="right_0" pos="108.44" speed="0.60" angle="90.00" x="714.26" y="136.47"/>
        <vehicle id="2_4" eclass="HBEFA3/PC_G_EU4" CO2="2704.82" CO="156.03" HC="0.77" NOx="1.23" PMx="0.06" fuel="1.16" electricity="0.00" noise="60.54" route="routeright" type="2" waiting="0.00" lane="right_1" pos="99.38" speed="0.60" angle="90.00" x="705.38" y="139.77"/>
        <vehicle id="3_0" eclass="HBEFA3/PC_G_EU4" CO2="2704.82" CO="156.03" HC="0.77" NOx="1.23" PMx="0.06" fuel="1.16" electricity="0.00" noise="60.54" route="routeright" type="3" waiting="0.00" lane="right_0" pos="219.42" speed="0.60" angle="90.00" x="823.03" y="136.47"/>
        <vehicle id="3_1" eclass="HBEFA3/PC_G_EU4" CO2="2704.81" CO="156.03" HC="0.77" NOx="1.23" PMx="0.06" fuel="1.16" electricity="0.00" noise="60.54" route="routeright" type="3" waiting="0.00" lane="right_1" pos="226.21" speed="0.60" angle="90.00" x="829.67" y="139.77"/>
        <vehicle id="3_2" eclass="HBEFA3/PC_G_EU4" CO2="2704.91" CO="156.02" HC="0.77" NOx="1.23" PMx="0.06" fuel="1.16" electricity="0.00" noise="60.54" route="routeright" type="3" waiting="0.00" lane="right_0" pos="346.54" speed="0.60" angle="90.00" x="947.61" y="136.47"/>
        <vehicle id="3_3" eclass="HBEFA3/PC_G_EU4" CO2="2704.91" CO="156.02" HC="0.77" NOx="1.23" PMx="0.06" fuel="1.16" electricity="0.00" noise="60.54" route="routeright" type="3" waiting="0.00" lane="right_1" pos="345.28" speed="0.60" angle="90.00" x="946.37" y="139.77"/>
        <vehicle id="3_4" eclass="HBEFA3/PC_G_EU4" CO2="2704.80" CO="156.03" HC="0.77" NOx="1.23" PMx="0.06" fuel="1.16" electricity="0.00" noise="60.54" route="routeleft" type="3" waiting="0.00" lane="left_0" pos="69.01" speed="0.60" angle="90.00" x="167.18" y="136.47"/>
        <vehicle id="4_0" eclass="HBEFA3/PC_G_EU4" CO2="2704.81" CO="156.03" HC="0.77" NOx="1.23" PMx="0.06" fuel="1.16" electricity="0.00" noise="60.54" route="routeleft" type="4" waiting="0.00" lane="left_1" pos="62.05" speed="0.60" angle="90.00" x="160.40" y="139.77"/>
        <vehicle id="4_1" eclass="HBEFA3/PC_G_EU4" CO2="2704.87" CO="156.03" HC="0.77" NOx="1.23" PMx="0.06" fuel="1.16" electricity="0.00" noise="60.54" route="routeleft" type="4" waiting="0.00" lane="left_0" pos="187.15" speed="0.60" angle="90.00" x="282.17" y="136.47"/>
        <vehicle id="4_2" eclass="HBEFA3/PC_G_EU4" CO2="2704.86" CO="156.03" HC="0.77" NOx="1.23" PMx="0.06" fuel="1.16" electricity="0.00" noise="60.54" route="routeleft" type="4" waiting="0.00" lane="left_1" pos="184.87" speed="0.60" angle="90.00" x="279.95" y="139.77"/>
        <vehicle id="4_3" eclass="HBEFA3/PC_G_EU4" CO2="2704.80" CO="156.03" HC="0.77" NOx="1.23" PMx="0.06" fuel="1.16" electricity="0.00" noise="60.54" route="routediverge" type="4" waiting="0.00" lane="diverge_0" pos="0.24" speed="0.60" angle="134.00" x="606.57" y="132.52"/>
        <vehicle id="4_4" eclass="HBEFA3/PC_G_EU4" CO2="2704.91" CO="156.02" HC="0.77" NOx="1.23" PMx="0.06" fuel="1.16" electricity="0.00" noise="60.54" route="routediverge" type="4" waiting="0.00" lane="diverge_0" pos="118.79" speed="0.60" angle="135.00" x="685.90" y="53.18"/>
    </timestep>
    <timestep time="1.00">
        <vehicle id="1_0" eclass="HBEFA3/PC_G_EU4" CO2="2732.81" CO="153.20" HC="0.76" NOx="1.23" PMx="0.06" fuel="1.17" electricity="0.00" noise="60.62" route="routemerge" type="1" waiting="0.00" lane="merge_0" pos="2.40" speed="0.80" angle="45.00" x="331.98" y="71.06"/>