<?xml version="1.0" encoding="UTF-8"?>

<!-- generated on Mon Nov 19 20:37:47 2018 by SUMO gui Version b'v0_31_0-812-g1d4338ab80'
<?xml version="1.0" encoding="UTF-8"?>

<configuration xmlns:xsi="http://www.w3.org/2001/XMLSchema-instance" xsi:noNamespaceSchemaLocation="http://sumo.dlr.de/xsd/sumoConfiguration.xsd">

    <input>
        <net-file value="/Users/barryfan/flow/flow/scenarios/debug/cfg/merge-baseline_20181119-2037461542688666.357294.net.xml"/>
        <route-files value="/Users/barryfan/flow/flow/scenarios/debug/cfg/merge-baseline_20181119-2037461542688666.357294.rou.xml"/>
        <additional-files value="/Users/barryfan/flow/flow/scenarios/debug/cfg/merge-baseline_20181119-2037461542688666.357294.add.xml"/>
    </input>

    <output>
        <emission-output value="./data/merge-baseline_20181119-2037461542688666.357294-emission.xml"/>
    </output>

    <time>
        <begin value="0"/>
        <step-length value="0.2"/>
    </time>

    <processing>
        <time-to-teleport value="-1"/>
    </processing>

    <report>
        <no-step-log value="true"/>
    </report>

    <traci_server>
        <remote-port value="63297"/>
    </traci_server>

    <gui_only>
        <gui-settings-file value="/Users/barryfan/flow/flow/scenarios/debug/cfg/merge-baseline_20181119-2037461542688666.357294.gui.cfg"/>
        <tracker-interval value="0.2"/>
    </gui_only>

</configuration>
-->

<emission-export xmlns:xsi="http://www.w3.org/2001/XMLSchema-instance" xsi:noNamespaceSchemaLocation="http://sumo.dlr.de/xsd/emission_file.xsd">
    <timestep time="0.00">
        <vehicle id="1_0" eclass="HBEFA3/PC_G_EU4" CO2="2624.72" CO="164.78" HC="0.81" NOx="1.20" PMx="0.07" fuel="1.13" electricity="0.00" noise="55.94" route="routeinflow_highway" type="1" waiting="0.00" lane="inflow_highway_0" pos="0.00" speed="0.00" angle="90.00" x="0.00" y="136.47"/>
        <vehicle id="1_1" eclass="HBEFA3/PC_G_EU4" CO2="2624.72" CO="164.78" HC="0.81" NOx="1.20" PMx="0.07" fuel="1.13" electricity="0.00" noise="55.94" route="routeinflow_highway" type="1" waiting="0.00" lane="inflow_highway_1" pos="1.88" speed="0.00" angle="90.00" x="1.88" y="139.77"/>
        <vehicle id="1_2" eclass="HBEFA3/PC_G_EU4" CO2="2624.72" CO="164.78" HC="0.81" NOx="1.20" PMx="0.07" fuel="1.13" electricity="0.00" noise="55.94" route="routecenter" type="1" waiting="0.00" lane="center_0" pos="21.61" speed="0.00" angle="90.00" x="421.26" y="136.47"/>
        <vehicle id="1_3" eclass="HBEFA3/PC_G_EU4" CO2="2624.72" CO="164.78" HC="0.81" NOx="1.20" PMx="0.07" fuel="1.13" electricity="0.00" noise="55.94" route="routecenter" type="1" waiting="0.00" lane="center_1" pos="29.18" speed="0.00" angle="90.00" x="428.86" y="139.77"/>
        <vehicle id="1_4" eclass="HBEFA3/PC_G_EU4" CO2="2624.72" CO="164.78" HC="0.81" NOx="1.20" PMx="0.07" fuel="1.13" electricity="0.00" noise="55.94" route="routecenter" type="1" waiting="0.00" lane="center_0" pos="145.20" speed="0.00" angle="90.00" x="545.40" y="136.47"/>
        <vehicle id="2_0" eclass="HBEFA3/PC_G_EU4" CO2="2624.72" CO="164.78" HC="0.81" NOx="1.20" PMx="0.07" fuel="1.13" electricity="0.00" noise="55.94" route="routecenter" type="2" waiting="0.00" lane="center_1" pos="149.66" speed="0.00" angle="90.00" x="549.89" y="139.77"/>
        <vehicle id="2_1" eclass="HBEFA3/PC_G_EU4" CO2="2624.72" CO="164.78" HC="0.81" NOx="1.20" PMx="0.07" fuel="1.13" electricity="0.00" noise="55.94" route="routediverge" type="2" waiting="0.00" lane="diverge_0" pos="72.53" speed="0.00" angle="135.00" x="654.95" y="84.14"/>
        <vehicle id="2_2" eclass="HBEFA3/PC_G_EU4" CO2="2624.72" CO="164.78" HC="0.81" NOx="1.20" PMx="0.07" fuel="1.13" electricity="0.00" noise="55.94" route="routediverge" type="2" waiting="0.00" lane="diverge_0" pos="184.88" speed="0.00" angle="135.00" x="730.13" y="8.95"/>
        <vehicle id="2_3" eclass="HBEFA3/PC_G_EU4" CO2="2624.72" CO="164.78" HC="0.81" NOx="1.20" PMx="0.07" fuel="1.13" electricity="0.00" noise="55.94" route="routeright" type="2" waiting="0.00" lane="right_0" pos="101.77" speed="0.00" angle="90.00" x="707.72" y="136.47"/>
        <vehicle id="2_4" eclass="HBEFA3/PC_G_EU4" CO2="2624.72" CO="164.78" HC="0.81" NOx="1.20" PMx="0.07" fuel="1.13" electricity="0.00" noise="55.94" route="routeright" type="2" waiting="0.00" lane="right_1" pos="101.78" speed="0.00" angle="90.00" x="707.73" y="139.77"/>
        <vehicle id="3_0" eclass="HBEFA3/PC_G_EU4" CO2="2624.72" CO="164.78" HC="0.81" NOx="1.20" PMx="0.07" fuel="1.13" electricity="0.00" noise="55.94" route="routeright" type="3" waiting="0.00" lane="right_0" pos="224.01" speed="0.00" angle="90.00" x="827.52" y="136.47"/>
        <vehicle id="3_1" eclass="HBEFA3/PC_G_EU4" CO2="2624.72" CO="164.78" HC="0.81" NOx="1.20" PMx="0.07" fuel="1.13" electricity="0.00" noise="55.94" route="routeright" type="3" waiting="0.00" lane="right_1" pos="227.29" speed="0.00" angle="90.00" x="830.74" y="139.77"/>
        <vehicle id="3_2" eclass="HBEFA3/PC_G_EU4" CO2="2624.72" CO="164.78" HC="0.81" NOx="1.20" PMx="0.07" fuel="1.13" electricity="0.00" noise="55.94" route="routeright" type="3" waiting="0.00" lane="right_0" pos="339.58" speed="0.00" angle="90.00" x="940.79" y="136.47"/>
        <vehicle id="3_3" eclass="HBEFA3/PC_G_EU4" CO2="2624.72" CO="164.78" HC="0.81" NOx="1.20" PMx="0.07" fuel="1.13" electricity="0.00" noise="55.94" route="routeright" type="3" waiting="0.00" lane="right_1" pos="337.02" speed="0.00" angle="90.00" x="938.27" y="139.77"/>
        <vehicle id="3_4" eclass="HBEFA3/PC_G_EU4" CO2="2624.72" CO="164.78" HC="0.81" NOx="1.20" PMx="0.07" fuel="1.13" electricity="0.00" noise="55.94" route="routeinflow_merge" type="3" waiting="0.00" lane="inflow_merge_0" pos="61.54" speed="0.00" angle="45.00" x="303.26" y="42.34"/>
        <vehicle id="4_0" eclass="HBEFA3/PC_G_EU4" CO2="2624.72" CO="164.78" HC="0.81" NOx="1.20" PMx="0.07" fuel="1.13" electricity="0.00" noise="55.94" route="routeleft" type="4" waiting="0.00" lane="left_0" pos="83.44" speed="0.00" angle="90.00" x="181.22" y="136.47"/>
        <vehicle id="4_1" eclass="HBEFA3/PC_G_EU4" CO2="2624.72" CO="164.78" HC="0.81" NOx="1.20" PMx="0.07" fuel="1.13" electricity="0.00" noise="55.94" route="routeleft" type="4" waiting="0.00" lane="left_1" pos="77.57" speed="0.00" angle="90.00" x="175.51" y="139.77"/>
        <vehicle id="4_2" eclass="HBEFA3/PC_G_EU4" CO2="2624.72" CO="164.78" HC="0.81" NOx="1.20" PMx="0.07" fuel="1.13" electricity="0.00" noise="55.94" route="routeleft" type="4" waiting="0.00" lane="left_0" pos="197.68" speed="0.00" angle="90.00" x="292.43" y="136.47"/>
        <vehicle id="4_3" eclass="HBEFA3/PC_G_EU4" CO2="2624.72" CO="164.78" HC="0.81" NOx="1.20" PMx="0.07" fuel="1.13" electricity="0.00" noise="55.94" route="routeleft" type="4" waiting="0.00" lane="left_1" pos="200.50" speed="0.00" angle="90.00" x="295.16" y="139.77"/>
        <vehicle id="4_4" eclass="HBEFA3/PC_G_EU4" CO2="2624.72" CO="164.78" HC="0.81" NOx="1.20" PMx="0.07" fuel="1.13" electricity="0.00" noise="55.94" route="routemerge" type="4" waiting="0.00" lane="merge_0" pos="15.70" speed="0.00" angle="45.00" x="340.37" y="79.45"/>
    </timestep>
    <timestep time="0.20">
        <vehicle id="1_0" eclass="HBEFA3/PC_G_EU4" CO2="2624.72" CO="164.78" HC="0.81" NOx="1.20" PMx="0.07" fuel="1.13" electricity="0.00" noise="55.94" route="routeinflow_highway" type="1" waiting="0.00" lane="inflow_highway_0" pos="0.00" speed="0.00" angle="90.00" x="0.00" y="136.47"/>
        <vehicle id="1_1" eclass="HBEFA3/PC_G_EU4" CO2="2624.72" CO="164.78" HC="0.81" NOx="1.20" PMx="0.07" fuel="1.13" electricity="0.00" noise="55.94" route="routeinflow_highway" type="1" waiting="0.00" lane="inflow_highway_1" pos="1.88" speed="0.00" angle="90.00" x="1.88" y="139.77"/>
        <vehicle id="1_2" eclass="HBEFA3/PC_G_EU4" CO2="2624.72" CO="164.78" HC="0.81" NOx="1.20" PMx="0.07" fuel="1.13" electricity="0.00" noise="55.94" route="routecenter" type="1" waiting="0.00" lane="center_0" pos="21.61" speed="0.00" angle="90.00" x="421.26" y="136.47"/>
        <vehicle id="1_3" eclass="HBEFA3/PC_G_EU4" CO2="2624.72" CO="164.78" HC="0.81" NOx="1.20" PMx="0.07" fuel="1.13" electricity="0.00" noise="55.94" route="routecenter" type="1" waiting="0.00" lane="center_1" pos="29.18" speed="0.00" angle="90.00" x="428.86" y="139.77"/>
        <vehicle id="1_4" eclass="HBEFA3/PC_G_EU4" CO2="2624.72" CO="164.78" HC="0.81" NOx="1.20" PMx="0.07" fuel="1.13" electricity="0.00" noise="55.94" route="routecenter" type="1" waiting="0.00" lane="center_0" pos="145.20" speed="0.00" angle="90.00" x="545.40" y="136.47"/>
        <vehicle id="2_0" eclass="HBEFA3/PC_G_EU4" CO2="2624.72" CO="164.78" HC="0.81" NOx="1.20" PMx="0.07" fuel="1.13" electricity="0.00" noise="55.94" route="routecenter" type="2" waiting="0.00" lane="center_1" pos="149.66" speed="0.00" angle="90.00" x="549.89" y="139.77"/>
        <vehicle id="2_1" eclass="HBEFA3/PC_G_EU4" CO2="2624.72" CO="164.78" HC="0.81" NOx="1.20" PMx="0.07" fuel="1.13" electricity="0.00" noise="55.94" route="routediverge" type="2" waiting="0.00" lane="diverge_0" pos="72.53" speed="0.00" angle="135.00" x="654.95" y="84.14"/>
        <vehicle id="2_2" eclass="HBEFA3/PC_G_EU4" CO2="2624.72" CO="164.78" HC="0.81" NOx="1.20" PMx="0.07" fuel="1.13" electricity="0.00" noise="55.94" route="routediverge" type="2" waiting="0.00" lane="diverge_0" pos="184.88" speed="0.00" angle="135.00" x="730.13" y="8.95"/>
        <vehicle id="2_3" eclass="HBEFA3/PC_G_EU4" CO2="2624.72" CO="164.78" HC="0.81" NOx="1.20" PMx="0.07" fuel="1.13" electricity="0.00" noise="55.94" route="routeright" type="2" waiting="0.00" lane="right_0" pos="101.77" speed="0.00" angle="90.00" x="707.72" y="136.47"/>
        <vehicle id="2_4" eclass="HBEFA3/PC_G_EU4" CO2="2624.72" CO="164.78" HC="0.81" NOx="1.20" PMx="0.07" fuel="1.13" electricity="0.00" noise="55.94" route="routeright" type="2" waiting="0.00" lane="right_1" pos="101.78" speed="0.00" angle="90.00" x="707.73" y="139.77"/>
        <vehicle id="3_0" eclass="HBEFA3/PC_G_EU4" CO2="2624.72" CO="164.78" HC="0.81" NOx="1.20" PMx="0.07" fuel="1.13" electricity="0.00" noise="55.94" route="routeright" type="3" waiting="0.00" lane="right_0" pos="224.01" speed="0.00" angle="90.00" x="827.52" y="136.47"/>
        <vehicle id="3_1" eclass="HBEFA3/PC_G_EU4" CO2="2624.72" CO="164.78" HC="0.81" NOx="1.20" PMx="0.07" fuel="1.13" electricity="0.00" noise="55.94" route="routeright" type="3" waiting="0.00" lane="right_1" pos="227.29" speed="0.00" angle="90.00" x="830.74" y="139.77"/>
        <vehicle id="3_2" eclass="HBEFA3/PC_G_EU4" CO2="2624.72" CO="164.78" HC="0.81" NOx="1.20" PMx="0.07" fuel="1.13" electricity="0.00" noise="55.94" route="routeright" type="3" waiting="0.00" lane="right_0" pos="339.58" speed="0.00" angle="90.00" x="940.79" y="136.47"/>
        <vehicle id="3_3" eclass="HBEFA3/PC_G_EU4" CO2="2624.72" CO="164.78" HC="0.81" NOx="1.20" PMx="0.07" fuel="1.13" electricity="0.00" noise="55.94" route="routeright" type="3" waiting="0.00" lane="right_1" pos="337.02" speed="0.00" angle="90.00" x="938.27" y="139.77"/>
        <vehicle id="3_4" eclass="HBEFA3/PC_G_EU4" CO2="2624.72" CO="164.78" HC="0.81" NOx="1.20" PMx="0.07" fuel="1.13" electricity="0.00" noise="55.94" route="routeinflow_merge" type="3" waiting="0.00" lane="inflow_merge_0" pos="61.54" speed="0.00" angle="45.00" x="303.26" y="42.34"/>
        <vehicle id="4_0" eclass="HBEFA3/PC_G_EU4" CO2="2624.72" CO="164.78" HC="0.81" NOx="1.20" PMx="0.07" fuel="1.13" electricity="0.00" noise="55.94" route="routeleft" type="4" waiting="0.00" lane="left_0" pos="83.44" speed="0.00" angle="90.00" x="181.22" y="136.47"/>
        <vehicle id="4_1" eclass="HBEFA3/PC_G_EU4" CO2="2624.72" CO="164.78" HC="0.81" NOx="1.20" PMx="0.07" fuel="1.13" electricity="0.00" noise="55.94" route="routeleft" type="4" waiting="0.00" lane="left_1" pos="77.57" speed="0.00" angle="90.00" x="175.51" y="139.77"/>
        <vehicle id="4_2" eclass="HBEFA3/PC_G_EU4" CO2="2624.72" CO="164.78" HC="0.81" NOx="1.20" PMx="0.07" fuel="1.13" electricity="0.00" noise="55.94" route="routeleft" type="4" waiting="0.00" lane="left_0" pos="197.68" speed="0.00" angle="90.00" x="292.43" y="136.47"/>
        <vehicle id="4_3" eclass="HBEFA3/PC_G_EU4" CO2="2624.72" CO="164.78" HC="0.81" NOx="1.20" PMx="0.07" fuel="1.13" electricity="0.00" noise="55.94" route="routeleft" type="4" waiting="0.00" lane="left_1" pos="200.50" speed="0.00" angle="90.00" x="295.16" y="139.77"/>
        <vehicle id="4_4" eclass="HBEFA3/PC_G_EU4" CO2="2624.72" CO="164.78" HC="0.81" NOx="1.20" PMx="0.07" fuel="1.13" electricity="0.00" noise="55.94" route="routemerge" type="4" waiting="0.00" lane="merge_0" pos="15.70" speed="0.00" angle="45.00" x="340.37" y="79.45"/>
    </timestep>
    <timestep time="0.40">
        <vehicle id="1_0" eclass="HBEFA3/PC_G_EU4" CO2="2651.22" CO="161.80" HC="0.80" NOx="1.21" PMx="0.07" fuel="1.14" electricity="0.00" noise="60.41" route="!1_0!var#1" type="1" waiting="0.00" lane="inflow_highway_0" pos="0.04" speed="0.20" angle="90.00" x="0.04" y="136.47"/>
        <vehicle id="1_1" eclass="HBEFA3/PC_G_EU4" CO2="2651.22" CO="161.80" HC="0.80" NOx="1.21" PMx="0.07" fuel="1.14" electricity="0.00" noise="60.41" route="!1_1!var#1" type="1" waiting="0.00" lane="inflow_highway_1" pos="1.92" speed="0.20" angle="90.00" x="1.92" y="139.77"/>
        <vehicle id="1_2" eclass="HBEFA3/PC_G_EU4" CO2="2633.73" CO="162.39" HC="0.80" NOx="1.20" PMx="0.07" fuel="1.13" electricity="0.00" noise="59.21" route="routecenter" type="1" waiting="0.00" lane="center_0" pos="21.64" speed="0.15" angle="90.00" x="421.29" y="136.47"/>
        <vehicle id="1_3" eclass="HBEFA3/PC_G_EU4" CO2="2651.22" CO="161.80" HC="0.80" NOx="1.21" PMx="0.07" fuel="1.14" electricity="0.00" noise="60.41" route="routecenter" type="1" waiting="0.00" lane="center_1" pos="29.22" speed="0.20" angle="90.00" x="428.90" y="139.77"/>
        <vehicle id="1_4" eclass="HBEFA3/PC_G_EU4" CO2="2651.22" CO="161.80" HC="0.80" NOx="1.21" PMx="0.07" fuel="1.14" electricity="0.00" noise="60.41" route="routecenter" type="1" waiting="0.00" lane="center_0" pos="145.24" speed="0.20" angle="90.00" x="545.44" y="136.47"/>
        <vehicle id="2_0" eclass="HBEFA3/PC_G_EU4" CO2="2634.83" CO="162.34" HC="0.80" NOx="1.21" PMx="0.07" fuel="1.13" electricity="0.00" noise="59.30" route="routecenter" type="2" waiting="0.00" lane="center_1" pos="149.69" speed="0.15" angle="90.00" x="549.92" y="139.77"/>
        <vehicle id="2_1" eclass="HBEFA3/PC_G_EU4" CO2="2651.22" CO="161.80" HC="0.80" NOx="1.21" PMx="0.07" fuel="1.14" electricity="0.00" noise="60.41" route="routediverge" type="2" waiting="0.00" lane="diverge_0" pos="72.57" speed="0.20" angle="135.00" x="654.98" y="84.11"/>
        <vehicle id="2_2" eclass="HBEFA3/PC_G_EU4" CO2="2651.22" CO="161.80" HC="0.80" NOx="1.21" PMx="0.07" fuel="1.14" electricity="0.00" noise="60.41" route="routediverge" type="2" waiting="0.00" lane="diverge_0" pos="184.92" speed="0.20" angle="135.00" x="730.16" y="8.93"/>
        <vehicle id="2_3" eclass="HBEFA3/PC_G_EU4" CO2="2645.80" CO="161.95" HC="0.80" NOx="1.21" PMx="0.07" fuel="1.14" electricity="0.00" noise="60.09" route="routeright" type="2" waiting="0.00" lane="right_0" pos="101.80" speed="0.19" angle="90.00" x="707.75" y="136.47"/>
        <vehicle id="2_4" eclass="HBEFA3/PC_G_EU4" CO2="2643.42" CO="162.02" HC="0.80" NOx="1.21" PMx="0.07" fuel="1.14" electricity="0.00" noise="59.94" route="routeright" type="2" waiting="0.00" lane="right_1" pos="101.82" speed="0.18" angle="90.00" x="707.77" y="139.77"/>
        <vehicle id="3_0" eclass="HBEFA3/PC_G_EU4" CO2="2651.22" CO="161.80" HC="0.80" NOx="1.21" PMx="0.07" fuel="1.14" electricity="0.00" noise="60.41" route="routeright" type="3" waiting="0.00" lane="right_0" pos="224.05" speed="0.20" angle="90.00" x="827.56" y="136.47"/>
        <vehicle id="3_1" eclass="HBEFA3/PC_G_EU4" CO2="2647.20" CO="161.91" HC="0.80" NOx="1.21" PMx="0.07" fuel="1.14" electricity="0.00" noise="60.18" route="routeright" type="3" waiting="0.00" lane="right_1" pos="227.33" speed="0.19" angle="90.00" x="830.78" y="139.77"/>
        <vehicle id="3_2" eclass="HBEFA3/PC_G_EU4" CO2="2651.22" CO="161.80" HC="0.80" NOx="1.21" PMx="0.07" fuel="1.14" electricity="0.00" noise="60.41" route="routeright" type="3" waiting="0.00" lane="right_0" pos="339.62" speed="0.20" angle="90.00" x="940.83" y="136.47"/>
        <vehicle id="3_3" eclass="HBEFA3/PC_G_EU4" CO2="2631.09" CO="162.53" HC="0.80" NOx="1.20" PMx="0.07" fuel="1.13" electricity="0.00" noise="58.96" route="routeright" type="3" waiting="0.00" lane="right_1" pos="337.04" speed="0.13" angle="90.00" x="938.30" y="139.77"/>
        <vehicle id="3_4" eclass="HBEFA3/PC_G_EU4" CO2="2642.22" CO="162.05" HC="0.80" NOx="1.21" PMx="0.07" fuel="1.14" electricity="0.00" noise="59.86" route="routeinflow_merge" type="3" waiting="0.00" lane="inflow_merge_0" pos="61.57" speed="0.18" angle="45.00" x="303.29" y="42.37"/>
        <vehicle id="4_0" eclass="HBEFA3/PC_G_EU4" CO2="2651.22" CO="161.80" HC="0.80" NOx="1.21" PMx="0.07" fuel="1.14" electricity="0.00" noise="60.41" route="routeleft" type="4" waiting="0.00" lane="left_0" pos="83.48" speed="0.20" angle="90.00" x="181.26" y="136.47"/>
        <vehicle id="4_1" eclass="HBEFA3/PC_G_EU4" CO2="2642.23" CO="162.05" HC="0.80" NOx="1.21" PMx="0.07" fuel="1.14" electricity="0.00" noise="59.86" route="routeleft" type="4" waiting="0.00" lane="left_1" pos="77.60" speed="0.18" angle="90.00" x="175.54" y="139.77"/>
        <vehicle id="4_2" eclass="HBEFA3/PC_G_EU4" CO2="2651.22" CO="161.80" HC="0.80" NOx="1.21" PMx="0.07" fuel="1.14" electricity="0.00" noise="60.41" route="routeleft" type="4" waiting="0.00" lane="left_0" pos="197.72" speed="0.20" angle="90.00" x="292.46" y="136.47"/>
        <vehicle id="4_3" eclass="HBEFA3/PC_G_EU4" CO2="2651.22" CO="161.80" HC="0.80" NOx="1.21" PMx="0.07" fuel="1.14" electricity="0.00" noise="60.41" route="routeleft" type="4" waiting="0.00" lane="left_1" pos="200.54" speed="0.20" angle="90.00" x="295.20" y="139.77"/>
        <vehicle id="4_4" eclass="HBEFA3/PC_G_EU4" CO2="2639.88" CO="162.13" HC="0.80" NOx="1.21" PMx="0.07" fuel="1.13" electricity="0.00" noise="59.70" route="routemerge" type="4" waiting="0.00" lane="merge_0" pos="15.73" speed="0.17" angle="45.00" x="340.39" y="79.47"/>
    </timestep>
    <timestep time="0.60">
        <vehicle id="1_0" eclass="HBEFA3/PC_G_EU4" CO2="2678.34" CO="158.88" HC="0.79" NOx="1.22" PMx="0.07" fuel="1.15" electricity="0.00" noise="60.49" route="!1_0!var#1" type="1" waiting="0.00" lane="inflow_highway_0" pos="0.12" speed="0.40" angle="90.00" x="0.12" y="136.47"/>
        <vehicle id="1_1" eclass="HBEFA3/PC_G_EU4" CO2="2636.90" CO="159.31" HC="0.79" NOx="1.20" PMx="0.06" fuel="1.13" electricity="0.00" noise="58.84" route="!1_1!var#1" type="1" waiting="0.00" lane="inflow_highway_1" pos="1.99" speed="0.33" angle="90.00" x="1.99" y="139.77"/>
        <vehicle id="1_2" eclass="HBEFA3/PC_G_EU4" CO2="2656.23" CO="159.82" HC="0.79" NOx="1.21" PMx="0.07" fuel="1.14" electricity="0.00" noise="59.87" route="routecenter" type="1" waiting="0.00" lane="center_0" pos="21.71" speed="0.32" angle="90.00" x="421.35" y="136.47"/>
        <vehicle id="1_3" eclass="HBEFA3/PC_G_EU4" CO2="2670.99" CO="158.93" HC="0.79" NOx="1.22" PMx="0.07" fuel="1.15" electricity="0.00" noise="60.23" route="routecenter" type="1" waiting="0.00" lane="center_1" pos="29.29" speed="0.39" angle="90.00" x="428.98" y="139.77"/>
        <vehicle id="1_4" eclass="HBEFA3/PC_G_EU4" CO2="2656.73" CO="159.05" HC="0.79" NOx="1.21" PMx="0.06" fuel="1.14" electricity="0.00" noise="59.70" route="routecenter" type="1" waiting="0.00" lane="center_0" pos="145.31" speed="0.36" angle="90.00" x="545.52" y="136.47"/>
        <vehicle id="2_0" eclass="HBEFA3/PC_G_EU4" CO2="2665.81" CO="159.66" HC="0.79" NOx="1.21" PMx="0.07" fuel="1.15" electricity="0.00" noise="60.25" route="routecenter" type="2" waiting="0.00" lane="center_1" pos="149.76" speed="0.34" angle="90.00" x="549.98" y="139.77"/>
        <vehicle id="2_1" eclass="HBEFA3/PC_G_EU4" CO2="2678.34" CO="158.88" HC="0.79" NOx="1.22" PMx="0.07" fuel="1.15" electricity="0.00" noise="60.49" route="routediverge" type="2" waiting="0.00" lane="diverge_0" pos="72.65" speed="0.40" angle="135.00" x="655.03" y="84.06"/>
        <vehicle id="2_2" eclass="HBEFA3/PC_G_EU4" CO2="2631.82" CO="159.40" HC="0.79" NOx="1.20" PMx="0.06" fuel="1.13" electricity="0.00" noise="58.59" route="routediverge" type="2" waiting="0.00" lane="diverge_0" pos="184.98" speed="0.31" angle="135.00" x="730.20" y="8.88"/>
        <vehicle id="2_3" eclass="HBEFA3/PC_G_EU4" CO2="2644.86" CO="159.41" HC="0.79" NOx="1.20" PMx="0.06" fuel="1.14" electricity="0.00" noise="59.24" route="routeright" type="2" waiting="0.00" lane="right_0" pos="101.87" speed="0.33" angle="90.00" x="707.82" y="136.47"/>
        <vehicle id="2_4" eclass="HBEFA3/PC_G_EU4" CO2="2673.24" CO="159.20" HC="0.79" NOx="1.22" PMx="0.07" fuel="1.15" electricity="0.00" noise="60.40" route="routeright" type="2" waiting="0.00" lane="right_1" pos="101.90" speed="0.38" angle="90.00" x="707.84" y="139.77"/>
        <vehicle id="3_0" eclass="HBEFA3/PC_G_EU4" CO2="2678.34" CO="158.88" HC="0.79" NOx="1.22" PMx="0.07" fuel="1.15" electricity="0.00" noise="60.49" route="routeright" type="3" waiting="0.00" lane="right_0" pos="224.13" speed="0.40" angle="90.00" x="827.63" y="136.47"/>
        <vehicle id="3_1" eclass="HBEFA3/PC_G_EU4" CO2="2648.59" CO="159.30" HC="0.79" NOx="1.21" PMx="0.06" fuel="1.14" electricity="0.00" noise="59.40" route="routeright" type="3" waiting="0.00" lane="right_1" pos="227.40" speed="0.34" angle="90.00" x="830.84" y="139.77"/>
        <vehicle id="3_2" eclass="HBEFA3/PC_G_EU4" CO2="2663.30" CO="158.98" HC="0.79" NOx="1.21" PMx="0.06" fuel="1.14" electricity="0.00" noise="59.95" route="routeright" type="3" waiting="0.00" lane="right_0" pos="339.70" speed="0.38" angle="90.00" x="940.90" y="136.47"/>
        <vehicle id="3_3" eclass="HBEFA3/PC_G_EU4" CO2="2634.60" CO="160.38" HC="0.79" NOx="1.20" PMx="0.06" fuel="1.13" electricity="0.00" noise="58.83" route="routeright" type="3" waiting="0.00" lane="right_1" pos="337.09" speed="0.26" angle="90.00" x="938.35" y="139.77"/>
        <vehicle id="3_4" eclass="HBEFA3/PC_G_EU4" CO2="2674.94" CO="159.24" HC="0.79" NOx="1.22" PMx="0.07" fuel="1.15" electricity="0.00" noise="60.48" route="routeinflow_merge" type="3" waiting="0.00" lane="inflow_merge_0" pos="61.65" speed="0.38" angle="45.00" x="303.34" y="42.42"/>
        <vehicle id="4_0" eclass="HBEFA3/PC_G_EU4" CO2="2678.34" CO="158.88" HC="0.79" NOx="1.22" PMx="0.07" fuel="1.15" electricity="0.00" noise="60.49" route="routeleft" type="4" waiting="0.00" lane="left_0" pos="83.56" speed="0.40" angle="90.00" x="181.34" y="136.47"/>
        <vehicle id="4_1" eclass="HBEFA3/PC_G_EU4" CO2="2674.94" CO="159.24" HC="0.79" NOx="1.22" PMx="0.07" fuel="1.15" electricity="0.00" noise="60.48" route="routeleft" type="4" waiting="0.00" lane="left_1" pos="77.68" speed="0.38" angle="90.00" x="175.61" y="139.77"/>
        <vehicle id="4_2" eclass="HBEFA3/PC_G_EU4" CO2="2659.95" CO="159.01" HC="0.79" NOx="1.21" PMx="0.06" fuel="1.14" electricity="0.00" noise="59.83" route="routeleft" type="4" waiting="0.00" lane="left_0" pos="197.80" speed="0.37" angle="90.00" x="292.54" y="136.47"/>
        <vehicle id="4_3" eclass="HBEFA3/PC_G_EU4" CO2="2674.45" CO="158.90" HC="0.79" NOx="1.22" PMx="0.07" fuel="1.15" electricity="0.00" noise="60.36" route="routeleft" type="4" waiting="0.00" lane="left_1" pos="200.62" speed="0.39" angle="90.00" x="295.28" y="139.77"/>
        <vehicle id="4_4" eclass="HBEFA3/PC_G_EU4" CO2="2673.94" CO="159.35" HC="0.79" NOx="1.22" PMx="0.07" fuel="1.15" electricity="0.00" noise="60.48" route="routemerge" type="4" waiting="0.00" lane="merge_0" pos="15.80" speed="0.37" angle="45.00" x="340.44" y="79.52"/>
    </timestep>
    <timestep time="0.80">
        <vehicle id="1_0" eclass="HBEFA3/PC_G_EU4" CO2="2698.85" CO="155.99" HC="0.77" NOx="1.22" PMx="0.06" fuel="1.16" electricity="0.00" noise="60.39" route="!1_0!var#1" type="1" waiting="0.00" lane="inflow_highway_0" pos="0.24" speed="0.59" angle="90.00" x="0.24" y="136.47"/>
        <vehicle id="1_1" eclass="HBEFA3/PC_G_EU4" CO2="2676.47" CO="157.08" HC="0.78" NOx="1.21" PMx="0.06" fuel="1.15" electricity="0.00" noise="59.99" route="!1_1!var#1" type="1" waiting="0.00" lane="inflow_highway_1" pos="2.09" speed="0.50" angle="90.00" x="2.09" y="139.77"/>
        <vehicle id="1_2" eclass="HBEFA3/PC_G_EU4" CO2="2694.83" CO="157.15" HC="0.78" NOx="1.22" PMx="0.06" fuel="1.16" electricity="0.00" noise="60.53" route="routecenter" type="1" waiting="0.00" lane="center_0" pos="21.81" speed="0.52" angle="90.00" x="421.46" y="136.47"/>
        <vehicle id="1_3" eclass="HBEFA3/PC_G_EU4" CO2="2704.49" CO="156.16" HC="0.77" NOx="1.23" PMx="0.06" fuel="1.16" electricity="0.00" noise="60.56" route="routecenter" type="1" waiting="0.00" lane="center_1" pos="29.41" speed="0.59" angle="90.00" x="429.09" y="139.77"/>
        <vehicle id="1_4" eclass="HBEFA3/PC_G_EU4" CO2="2701.15" CO="156.50" HC="0.78" NOx="1.22" PMx="0.06" fuel="1.16" electricity="0.00" noise="60.55" route="routecenter" type="1" waiting="0.00" lane="center_0" pos="145.43" speed="0.56" angle="90.00" x="545.63" y="136.47"/>
        <vehicle id="2_0" eclass="HBEFA3/PC_G_EU4" CO2="2683.19" CO="156.86" HC="0.78" NOx="1.22" PMx="0.06" fuel="1.15" electricity="0.00" noise="60.15" route="routecenter" type="2" waiting="0.00" lane="center_1" pos="149.86" speed="0.52" angle="90.00" x="550.09" y="139.77"/>
        <vehicle id="2_1" eclass="HBEFA3/PC_G_EU4" CO2="2706.10" CO="156.00" HC="0.77" NOx="1.23" PMx="0.06" fuel="1.16" electricity="0.00" noise="60.57" route="routediverge" type="2" waiting="0.00" lane="diverge_0" pos="72.77" speed="0.60" angle="135.00" x="655.11" y="83.98"/>
        <vehicle id="2_2" eclass="HBEFA3/PC_G_EU4" CO2="2681.46" CO="157.23" HC="0.78" NOx="1.22" PMx="0.06" fuel="1.15" electricity="0.00" noise="60.17" route="routediverge" type="2" waiting="0.00" lane="diverge_0" pos="185.08" speed="0.50" angle="135.00" x="730.26" y="8.82"/>
        <vehicle id="2_3" eclass="HBEFA3/PC_G_EU4" CO2="2689.28" CO="157.00" HC="0.78" NOx="1.22" PMx="0.06" fuel="1.16" electricity="0.00" noise="60.35" route="routeright" type="2" waiting="0.00" lane="right_0" pos="101.97" speed="0.52" angle="90.00" x="707.92" y="136.47"/>
        <vehicle id="2_4" eclass="HBEFA3/PC_G_EU4" CO2="2702.63" CO="156.35" HC="0.78" NOx="1.23" PMx="0.06" fuel="1.16" electricity="0.00" noise="60.56" route="routeright" type="2" waiting="0.00" lane="right_1" pos="102.01" speed="0.58" angle="90.00" x="707.95" y="139.77"/>
        <vehicle id="3_0" eclass="HBEFA3/PC_G_EU4" CO2="2694.14" CO="155.98" HC="0.77" NOx="1.22" PMx="0.06" fuel="1.16" electricity="0.00" noise="60.27" route="routeright" type="3" waiting="0.00" lane="right_0" pos="224.24" speed="0.59" angle="90.00" x="827.75" y="136.47"/>
        <vehicle id="3_1" eclass="HBEFA3/PC_G_EU4" CO2="2697.80" CO="156.85" HC="0.78" NOx="1.22" PMx="0.06" fuel="1.16" electricity="0.00" noise="60.54" route="routeright" type="3" waiting="0.00" lane="right_1" pos="227.51" speed="0.54" angle="90.00" x="830.95" y="139.77"/>
        <vehicle id="3_2" eclass="HBEFA3/PC_G_EU4" CO2="2702.46" CO="156.34" HC="0.78" NOx="1.23" PMx="0.06" fuel="1.16" electricity="0.00" noise="60.55" route="routeright" type="3" waiting="0.00" lane="right_0" pos="339.81" speed="0.58" angle="90.00" x="941.01" y="136.47"/>
        <vehicle id="3_3" eclass="HBEFA3/PC_G_EU4" CO2="2685.53" CO="157.99" HC="0.78" NOx="1.22" PMx="0.06" fuel="1.15" electricity="0.00" noise="60.47" route="routeright" type="3" waiting="0.00" lane="right_1" pos="337.19" speed="0.46" angle="90.00" x="938.44" y="139.77"/>
        <vehicle id="3_4" eclass="HBEFA3/PC_G_EU4" CO2="2702.61" CO="156.35" HC="0.78" NOx="1.23" PMx="0.06" fuel="1.16" electricity="0.00" noise="60.56" route="routeinflow_merge" type="3" waiting="0.00" lane="inflow_merge_0" pos="61.76" speed="0.58" angle="45.00" x="303.42" y="42.50"/>
        <vehicle id="4_0" eclass="HBEFA3/PC_G_EU4" CO2="2692.78" CO="155.98" HC="0.77" NOx="1.22" PMx="0.06" fuel="1.16" electricity="0.00" noise="60.24" route="routeleft" type="4" waiting="0.00" lane="left_0" pos="83.68" speed="0.59" angle="90.00" x="181.45" y="136.47"/>
        <vehicle id="4_1" eclass="HBEFA3/PC_G_EU4" CO2="2702.62" CO="156.35" HC="0.78" NOx="1.23" PMx="0.06" fuel="1.16" electricity="0.00" noise="60.56" route="routeleft" type="4" waiting="0.00" lane="left_1" pos="77.79" speed="0.58" angle="90.00" x="175.73" y="139.77"/>
        <vehicle id="4_2" eclass="HBEFA3/PC_G_EU4" CO2="2661.69" CO="156.44" HC="0.77" NOx="1.21" PMx="0.06" fuel="1.14" electricity="0.00" noise="59.45" route="routeleft" type="4" waiting="0.00" lane="left_0" pos="197.90" speed="0.52" angle="90.00" x="292.64" y="136.47"/>
        <vehicle id="4_3" eclass="HBEFA3/PC_G_EU4" CO2="2705.26" CO="156.08" HC="0.77" NOx="1.23" PMx="0.06" fuel="1.16" electricity="0.00" noise="60.56" route="routeleft" type="4" waiting="0.00" lane="left_1" pos="200.73" speed="0.59" angle="90.00" x="295.40" y="139.77"/>
        <vehicle id="4_4" eclass="HBEFA3/PC_G_EU4" CO2="2701.59" CO="156.46" HC="0.78" NOx="1.22" PMx="0.06" fuel="1.16" electricity="0.00" noise="60.55" route="routemerge" type="4" waiting="0.00" lane="merge_0" pos="15.92" speed="0.57" angle="45.00" x="340.51" y="79.59"/>
    </timestep>
    <timestep time="1.00">
        <vehicle id="1_0" eclass="HBEFA3/PC_G_EU4" CO2="2733.34" CO="153.28" HC="0.76" NOx="1.23" PMx="0.06" fuel="1.18" electricity="0.00" noise="60.64" route="!1_0!var#1" type="1" waiting="0.00" lane="inflow_highway_0" pos="0.40" speed="0.79" angle="90.00" x="0.40" y="136.47"/>