<?xml version="1.0" encoding="UTF-8"?>

<!-- generated on Mon Nov 19 20:44:01 2018 by SUMO gui Version b'v0_31_0-812-g1d4338ab80'
<?xml version="1.0" encoding="UTF-8"?>

<configuration xmlns:xsi="http://www.w3.org/2001/XMLSchema-instance" xsi:noNamespaceSchemaLocation="http://sumo.dlr.de/xsd/sumoConfiguration.xsd">

    <input>
        <net-file value="/Users/barryfan/flow/flow/scenarios/debug/cfg/merge-baseline_20181119-2044001542689040.767773.net.xml"/>
        <route-files value="/Users/barryfan/flow/flow/scenarios/debug/cfg/merge-baseline_20181119-2044001542689040.767773.rou.xml"/>
        <additional-files value="/Users/barryfan/flow/flow/scenarios/debug/cfg/merge-baseline_20181119-2044001542689040.767773.add.xml"/>
    </input>

    <output>
        <emission-output value="./data/merge-baseline_20181119-2044001542689040.767773-emission.xml"/>
    </output>

    <time>
        <begin value="0"/>
        <step-length value="0.2"/>
    </time>

    <processing>
        <time-to-teleport value="-1"/>
    </processing>

    <report>
        <no-step-log value="true"/>
    </report>

    <traci_server>
        <remote-port value="63322"/>
    </traci_server>

    <gui_only>
        <gui-settings-file value="/Users/barryfan/flow/flow/scenarios/debug/cfg/merge-baseline_20181119-2044001542689040.767773.gui.cfg"/>
        <tracker-interval value="0.2"/>
    </gui_only>

</configuration>
-->

<emission-export xmlns:xsi="http://www.w3.org/2001/XMLSchema-instance" xsi:noNamespaceSchemaLocation="http://sumo.dlr.de/xsd/emission_file.xsd">
    <timestep time="0.00">
        <vehicle id="1_0" eclass="HBEFA3/PC_G_EU4" CO2="2624.72" CO="164.78" HC="0.81" NOx="1.20" PMx="0.07" fuel="1.13" electricity="0.00" noise="55.94" route="routeleft" type="1" waiting="0.00" lane="left_0" pos="11.57" speed="0.00" angle="90.00" x="111.26" y="136.47"/>
        <vehicle id="1_1" eclass="HBEFA3/PC_G_EU4" CO2="2624.72" CO="164.78" HC="0.81" NOx="1.20" PMx="0.07" fuel="1.13" electricity="0.00" noise="55.94" route="routeleft" type="1" waiting="0.00" lane="left_1" pos="0.00" speed="0.00" angle="90.00" x="100.00" y="139.77"/>
        <vehicle id="1_2" eclass="HBEFA3/PC_G_EU4" CO2="2624.72" CO="164.78" HC="0.81" NOx="1.20" PMx="0.07" fuel="1.13" electricity="0.00" noise="55.94" route="routeleft" type="1" waiting="0.00" lane="left_0" pos="129.82" speed="0.00" angle="90.00" x="226.37" y="136.47"/>
        <vehicle id="1_3" eclass="HBEFA3/PC_G_EU4" CO2="2624.72" CO="164.78" HC="0.81" NOx="1.20" PMx="0.07" fuel="1.13" electricity="0.00" noise="55.94" route="routeleft" type="1" waiting="0.00" lane="left_1" pos="126.69" speed="0.00" angle="90.00" x="223.32" y="139.77"/>
        <vehicle id="1_4" eclass="HBEFA3/PC_G_EU4" CO2="2624.72" CO="164.78" HC="0.81" NOx="1.20" PMx="0.07" fuel="1.13" electricity="0.00" noise="55.94" route="routeleft" type="1" waiting="0.00" lane="left_0" pos="250.34" speed="0.00" angle="90.00" x="343.68" y="136.47"/>
        <vehicle id="2_0" eclass="HBEFA3/PC_G_EU4" CO2="2624.72" CO="164.78" HC="0.81" NOx="1.20" PMx="0.07" fuel="1.13" electricity="0.00" noise="55.94" route="routeleft" type="2" waiting="0.00" lane="left_1" pos="243.49" speed="0.00" angle="90.00" x="337.01" y="139.77"/>
        <vehicle id="2_1" eclass="HBEFA3/PC_G_EU4" CO2="2624.72" CO="164.78" HC="0.81" NOx="1.20" PMx="0.07" fuel="1.13" electricity="0.00" noise="55.94" route="routeright" type="2" waiting="0.00" lane="right_0" pos="61.83" speed="0.00" angle="90.00" x="668.57" y="136.47"/>
        <vehicle id="2_2" eclass="HBEFA3/PC_G_EU4" CO2="2624.72" CO="164.78" HC="0.81" NOx="1.20" PMx="0.07" fuel="1.13" electricity="0.00" noise="55.94" route="routeright" type="2" waiting="0.00" lane="right_1" pos="65.84" speed="0.00" angle="90.00" x="672.50" y="139.77"/>
        <vehicle id="2_3" eclass="HBEFA3/PC_G_EU4" CO2="2624.72" CO="164.78" HC="0.81" NOx="1.20" PMx="0.07" fuel="1.13" electricity="0.00" noise="55.94" route="routeright" type="2" waiting="0.00" lane="right_0" pos="187.64" speed="0.00" angle="90.00" x="791.88" y="136.47"/>
        <vehicle id="2_4" eclass="HBEFA3/PC_G_EU4" CO2="2624.72" CO="164.78" HC="0.81" NOx="1.20" PMx="0.07" fuel="1.13" electricity="0.00" noise="55.94" route="routeright" type="2" waiting="0.00" lane="right_1" pos="186.71" speed="0.00" angle="90.00" x="790.96" y="139.77"/>
        <vehicle id="3_0" eclass="HBEFA3/PC_G_EU4" CO2="2624.72" CO="164.78" HC="0.81" NOx="1.20" PMx="0.07" fuel="1.13" electricity="0.00" noise="55.94" route="routeright" type="3" waiting="0.00" lane="right_0" pos="294.64" speed="0.00" angle="90.00" x="896.74" y="136.47"/>
        <vehicle id="3_1" eclass="HBEFA3/PC_G_EU4" CO2="2624.72" CO="164.78" HC="0.81" NOx="1.20" PMx="0.07" fuel="1.13" electricity="0.00" noise="55.94" route="routeright" type="3" waiting="0.00" lane="right_1" pos="298.05" speed="0.00" angle="90.00" x="900.09" y="139.77"/>
        <vehicle id="3_2" eclass="HBEFA3/PC_G_EU4" CO2="2624.72" CO="164.78" HC="0.81" NOx="1.20" PMx="0.07" fuel="1.13" electricity="0.00" noise="55.94" route="routemerge" type="3" waiting="0.00" lane="merge_0" pos="27.83" speed="0.00" angle="45.00" x="348.03" y="87.11"/>
        <vehicle id="3_3" eclass="HBEFA3/PC_G_EU4" CO2="2624.72" CO="164.78" HC="0.81" NOx="1.20" PMx="0.07" fuel="1.13" electricity="0.00" noise="55.94" route="routediverge" type="3" waiting="0.00" lane="diverge_0" pos="38.33" speed="0.00" angle="135.00" x="632.06" y="107.02"/>
        <vehicle id="3_4" eclass="HBEFA3/PC_G_EU4" CO2="2624.72" CO="164.78" HC="0.81" NOx="1.20" PMx="0.07" fuel="1.13" electricity="0.00" noise="55.94" route="routediverge" type="3" waiting="0.00" lane="diverge_0" pos="166.45" speed="0.00" angle="135.00" x="717.80" y="21.28"/>
        <vehicle id="4_0" eclass="HBEFA3/PC_G_EU4" CO2="2624.72" CO="164.78" HC="0.81" NOx="1.20" PMx="0.07" fuel="1.13" electricity="0.00" noise="55.94" route="routeinflow_highway" type="4" waiting="0.00" lane="inflow_highway_0" pos="77.68" speed="0.00" angle="90.00" x="77.68" y="136.47"/>
        <vehicle id="4_1" eclass="HBEFA3/PC_G_EU4" CO2="2624.72" CO="164.78" HC="0.81" NOx="1.20" PMx="0.07" fuel="1.13" electricity="0.00" noise="55.94" route="routeinflow_highway" type="4" waiting="0.00" lane="inflow_highway_1" pos="83.15" speed="0.00" angle="90.00" x="83.15" y="139.77"/>
        <vehicle id="4_2" eclass="HBEFA3/PC_G_EU4" CO2="2624.72" CO="164.78" HC="0.81" NOx="1.20" PMx="0.07" fuel="1.13" electricity="0.00" noise="55.94" route="routecenter" type="4" waiting="0.00" lane="center_0" pos="101.40" speed="0.00" angle="90.00" x="501.41" y="136.47"/>
        <vehicle id="4_3" eclass="HBEFA3/PC_G_EU4" CO2="2624.72" CO="164.78" HC="0.81" NOx="1.20" PMx="0.07" fuel="1.13" electricity="0.00" noise="55.94" route="routecenter" type="4" waiting="0.00" lane="center_1" pos="107.60" speed="0.00" angle="90.00" x="507.63" y="139.77"/>
        <vehicle id="4_4" eclass="HBEFA3/PC_G_EU4" CO2="2624.72" CO="164.78" HC="0.81" NOx="1.20" PMx="0.07" fuel="1.13" electricity="0.00" noise="55.94" route="routeinflow_merge" type="4" waiting="0.00" lane="inflow_merge_0" pos="23.77" speed="0.00" angle="45.00" x="276.56" y="15.64"/>
    </timestep>
    <timestep time="0.20">
        <vehicle id="1_0" eclass="HBEFA3/PC_G_EU4" CO2="2624.72" CO="164.78" HC="0.81" NOx="1.20" PMx="0.07" fuel="1.13" electricity="0.00" noise="55.94" route="routeleft" type="1" waiting="0.00" lane="left_0" pos="11.57" speed="0.00" angle="90.00" x="111.26" y="136.47"/>
        <vehicle id="1_1" eclass="HBEFA3/PC_G_EU4" CO2="2624.72" CO="164.78" HC="0.81" NOx="1.20" PMx="0.07" fuel="1.13" electricity="0.00" noise="55.94" route="routeleft" type="1" waiting="0.00" lane="left_1" pos="0.00" speed="0.00" angle="90.00" x="100.00" y="139.77"/>
        <vehicle id="1_2" eclass="HBEFA3/PC_G_EU4" CO2="2624.72" CO="164.78" HC="0.81" NOx="1.20" PMx="0.07" fuel="1.13" electricity="0.00" noise="55.94" route="routeleft" type="1" waiting="0.00" lane="left_0" pos="129.82" speed="0.00" angle="90.00" x="226.37" y="136.47"/>
        <vehicle id="1_3" eclass="HBEFA3/PC_G_EU4" CO2="2624.72" CO="164.78" HC="0.81" NOx="1.20" PMx="0.07" fuel="1.13" electricity="0.00" noise="55.94" route="routeleft" type="1" waiting="0.00" lane="left_1" pos="126.69" speed="0.00" angle="90.00" x="223.32" y="139.77"/>
        <vehicle id="1_4" eclass="HBEFA3/PC_G_EU4" CO2="2624.72" CO="164.78" HC="0.81" NOx="1.20" PMx="0.07" fuel="1.13" electricity="0.00" noise="55.94" route="routeleft" type="1" waiting="0.00" lane="left_0" pos="250.34" speed="0.00" angle="90.00" x="343.68" y="136.47"/>
        <vehicle id="2_0" eclass="HBEFA3/PC_G_EU4" CO2="2624.72" CO="164.78" HC="0.81" NOx="1.20" PMx="0.07" fuel="1.13" electricity="0.00" noise="55.94" route="routeleft" type="2" waiting="0.00" lane="left_1" pos="243.49" speed="0.00" angle="90.00" x="337.01" y="139.77"/>
        <vehicle id="2_1" eclass="HBEFA3/PC_G_EU4" CO2="2624.72" CO="164.78" HC="0.81" NOx="1.20" PMx="0.07" fuel="1.13" electricity="0.00" noise="55.94" route="routeright" type="2" waiting="0.00" lane="right_0" pos="61.83" speed="0.00" angle="90.00" x="668.57" y="136.47"/>
        <vehicle id="2_2" eclass="HBEFA3/PC_G_EU4" CO2="2624.72" CO="164.78" HC="0.81" NOx="1.20" PMx="0.07" fuel="1.13" electricity="0.00" noise="55.94" route="routeright" type="2" waiting="0.00" lane="right_1" pos="65.84" speed="0.00" angle="90.00" x="672.50" y="139.77"/>
        <vehicle id="2_3" eclass="HBEFA3/PC_G_EU4" CO2="2624.72" CO="164.78" HC="0.81" NOx="1.20" PMx="0.07" fuel="1.13" electricity="0.00" noise="55.94" route="routeright" type="2" waiting="0.00" lane="right_0" pos="187.64" speed="0.00" angle="90.00" x="791.88" y="136.47"/>
        <vehicle id="2_4" eclass="HBEFA3/PC_G_EU4" CO2="2624.72" CO="164.78" HC="0.81" NOx="1.20" PMx="0.07" fuel="1.13" electricity="0.00" noise="55.94" route="routeright" type="2" waiting="0.00" lane="right_1" pos="186.71" speed="0.00" angle="90.00" x="790.96" y="139.77"/>
        <vehicle id="3_0" eclass="HBEFA3/PC_G_EU4" CO2="2624.72" CO="164.78" HC="0.81" NOx="1.20" PMx="0.07" fuel="1.13" electricity="0.00" noise="55.94" route="routeright" type="3" waiting="0.00" lane="right_0" pos="294.64" speed="0.00" angle="90.00" x="896.74" y="136.47"/>
        <vehicle id="3_1" eclass="HBEFA3/PC_G_EU4" CO2="2624.72" CO="164.78" HC="0.81" NOx="1.20" PMx="0.07" fuel="1.13" electricity="0.00" noise="55.94" route="routeright" type="3" waiting="0.00" lane="right_1" pos="298.05" speed="0.00" angle="90.00" x="900.09" y="139.77"/>
        <vehicle id="3_2" eclass="HBEFA3/PC_G_EU4" CO2="2624.72" CO="164.78" HC="0.81" NOx="1.20" PMx="0.07" fuel="1.13" electricity="0.00" noise="55.94" route="routemerge" type="3" waiting="0.00" lane="merge_0" pos="27.83" speed="0.00" angle="45.00" x="348.03" y="87.11"/>
        <vehicle id="3_3" eclass="HBEFA3/PC_G_EU4" CO2="2624.72" CO="164.78" HC="0.81" NOx="1.20" PMx="0.07" fuel="1.13" electricity="0.00" noise="55.94" route="routediverge" type="3" waiting="0.00" lane="diverge_0" pos="38.33" speed="0.00" angle="135.00" x="632.06" y="107.02"/>
        <vehicle id="3_4" eclass="HBEFA3/PC_G_EU4" CO2="2624.72" CO="164.78" HC="0.81" NOx="1.20" PMx="0.07" fuel="1.13" electricity="0.00" noise="55.94" route="routediverge" type="3" waiting="0.00" lane="diverge_0" pos="166.45" speed="0.00" angle="135.00" x="717.80" y="21.28"/>
        <vehicle id="4_0" eclass="HBEFA3/PC_G_EU4" CO2="2624.72" CO="164.78" HC="0.81" NOx="1.20" PMx="0.07" fuel="1.13" electricity="0.00" noise="55.94" route="routeinflow_highway" type="4" waiting="0.00" lane="inflow_highway_0" pos="77.68" speed="0.00" angle="90.00" x="77.68" y="136.47"/>
        <vehicle id="4_1" eclass="HBEFA3/PC_G_EU4" CO2="2624.72" CO="164.78" HC="0.81" NOx="1.20" PMx="0.07" fuel="1.13" electricity="0.00" noise="55.94" route="routeinflow_highway" type="4" waiting="0.00" lane="inflow_highway_1" pos="83.15" speed="0.00" angle="90.00" x="83.15" y="139.77"/>
        <vehicle id="4_2" eclass="HBEFA3/PC_G_EU4" CO2="2624.72" CO="164.78" HC="0.81" NOx="1.20" PMx="0.07" fuel="1.13" electricity="0.00" noise="55.94" route="routecenter" type="4" waiting="0.00" lane="center_0" pos="101.40" speed="0.00" angle="90.00" x="501.41" y="136.47"/>
        <vehicle id="4_3" eclass="HBEFA3/PC_G_EU4" CO2="2624.72" CO="164.78" HC="0.81" NOx="1.20" PMx="0.07" fuel="1.13" electricity="0.00" noise="55.94" route="routecenter" type="4" waiting="0.00" lane="center_1" pos="107.60" speed="0.00" angle="90.00" x="507.63" y="139.77"/>
        <vehicle id="4_4" eclass="HBEFA3/PC_G_EU4" CO2="2624.72" CO="164.78" HC="0.81" NOx="1.20" PMx="0.07" fuel="1.13" electricity="0.00" noise="55.94" route="routeinflow_merge" type="4" waiting="0.00" lane="inflow_merge_0" pos="23.77" speed="0.00" angle="45.00" x="276.56" y="15.64"/>
    </timestep>
    <timestep time="0.40">
        <vehicle id="1_0" eclass="HBEFA3/PC_G_EU4" CO2="2637.46" CO="162.23" HC="0.80" NOx="1.21" PMx="0.07" fuel="1.13" electricity="0.00" noise="59.51" route="routeleft" type="1" waiting="0.00" lane="left_0" pos="11.60" speed="0.16" angle="90.00" x="111.29" y="136.47"/>
        <vehicle id="1_1" eclass="HBEFA3/PC_G_EU4" CO2="2631.05" CO="162.53" HC="0.80" NOx="1.20" PMx="0.07" fuel="1.13" electricity="0.00" noise="58.96" route="routeleft" type="1" waiting="0.00" lane="left_1" pos="0.03" speed="0.13" angle="90.00" x="100.03" y="139.77"/>
        <vehicle id="1_2" eclass="HBEFA3/PC_G_EU4" CO2="2635.44" CO="162.31" HC="0.80" NOx="1.21" PMx="0.07" fuel="1.13" electricity="0.00" noise="59.35" route="routeleft" type="1" waiting="0.00" lane="left_0" pos="129.85" speed="0.15" angle="90.00" x="226.40" y="136.47"/>
        <vehicle id="1_3" eclass="HBEFA3/PC_G_EU4" CO2="2632.72" CO="162.44" HC="0.80" NOx="1.20" PMx="0.07" fuel="1.13" electricity="0.00" noise="59.12" route="routeleft" type="1" waiting="0.00" lane="left_1" pos="126.72" speed="0.14" angle="90.00" x="223.35" y="139.77"/>
        <vehicle id="1_4" eclass="HBEFA3/PC_G_EU4" CO2="2636.98" CO="162.25" HC="0.80" NOx="1.21" PMx="0.07" fuel="1.13" electricity="0.00" noise="59.48" route="routeleft" type="1" waiting="0.00" lane="left_0" pos="250.37" speed="0.16" angle="90.00" x="343.71" y="136.47"/>
        <vehicle id="2_0" eclass="HBEFA3/PC_G_EU4" CO2="2651.22" CO="161.80" HC="0.80" NOx="1.21" PMx="0.07" fuel="1.14" electricity="0.00" noise="60.41" route="routeleft" type="2" waiting="0.00" lane="left_1" pos="243.53" speed="0.20" angle="90.00" x="337.05" y="139.77"/>
        <vehicle id="2_1" eclass="HBEFA3/PC_G_EU4" CO2="2643.56" CO="162.01" HC="0.80" NOx="1.21" PMx="0.07" fuel="1.14" electricity="0.00" noise="59.95" route="routeright" type="2" waiting="0.00" lane="right_0" pos="61.86" speed="0.18" angle="90.00" x="668.61" y="136.47"/>
        <vehicle id="2_2" eclass="HBEFA3/PC_G_EU4" CO2="2634.84" CO="162.34" HC="0.80" NOx="1.21" PMx="0.07" fuel="1.13" electricity="0.00" noise="59.30" route="routeright" type="2" waiting="0.00" lane="right_1" pos="65.87" speed="0.15" angle="90.00" x="672.53" y="139.77"/>
        <vehicle id="2_3" eclass="HBEFA3/PC_G_EU4" CO2="2651.22" CO="161.80" HC="0.80" NOx="1.21" PMx="0.07" fuel="1.14" electricity="0.00" noise="60.41" route="routeright" type="2" waiting="0.00" lane="right_0" pos="187.68" speed="0.20" angle="90.00" x="791.92" y="136.47"/>
        <vehicle id="2_4" eclass="HBEFA3/PC_G_EU4" CO2="2636.45" CO="162.27" HC="0.80" NOx="1.21" PMx="0.07" fuel="1.13" electricity="0.00" noise="59.44" route="routeright" type="2" waiting="0.00" lane="right_1" pos="186.74" speed="0.16" angle="90.00" x="790.99" y="139.77"/>
        <vehicle id="3_0" eclass="HBEFA3/PC_G_EU4" CO2="2651.22" CO="161.80" HC="0.80" NOx="1.21" PMx="0.07" fuel="1.14" electricity="0.00" noise="60.41" route="routeright" type="3" waiting="0.00" lane="right_0" pos="294.68" speed="0.20" angle="90.00" x="896.78" y="136.47"/>
        <vehicle id="3_1" eclass="HBEFA3/PC_G_EU4" CO2="2651.22" CO="161.80" HC="0.80" NOx="1.21" PMx="0.07" fuel="1.14" electricity="0.00" noise="60.41" route="routeright" type="3" waiting="0.00" lane="right_1" pos="298.09" speed="0.20" angle="90.00" x="900.13" y="139.77"/>
        <vehicle id="3_2" eclass="HBEFA3/PC_G_EU4" CO2="2651.22" CO="161.80" HC="0.80" NOx="1.21" PMx="0.07" fuel="1.14" electricity="0.00" noise="60.41" route="routemerge" type="3" waiting="0.00" lane="merge_0" pos="27.87" speed="0.20" angle="45.00" x="348.05" y="87.13"/>
        <vehicle id="3_3" eclass="HBEFA3/PC_G_EU4" CO2="2645.87" CO="161.94" HC="0.80" NOx="1.21" PMx="0.07" fuel="1.14" electricity="0.00" noise="60.10" route="routediverge" type="3" waiting="0.00" lane="diverge_0" pos="38.37" speed="0.19" angle="135.00" x="632.09" y="107.00"/>
        <vehicle id="3_4" eclass="HBEFA3/PC_G_EU4" CO2="2651.22" CO="161.80" HC="0.80" NOx="1.21" PMx="0.07" fuel="1.14" electricity="0.00" noise="60.41" route="routediverge" type="3" waiting="0.00" lane="diverge_0" pos="166.49" speed="0.20" angle="135.00" x="717.83" y="21.25"/>
        <vehicle id="4_0" eclass="HBEFA3/PC_G_EU4" CO2="2639.96" CO="162.13" HC="0.80" NOx="1.21" PMx="0.07" fuel="1.13" electricity="0.00" noise="59.70" route="routeinflow_highway" type="4" waiting="0.00" lane="inflow_highway_0" pos="77.72" speed="0.17" angle="90.00" x="77.72" y="136.47"/>
        <vehicle id="4_1" eclass="HBEFA3/PC_G_EU4" CO2="2651.22" CO="161.80" HC="0.80" NOx="1.21" PMx="0.07" fuel="1.14" electricity="0.00" noise="60.41" route="routeinflow_highway" type="4" waiting="0.00" lane="inflow_highway_1" pos="83.19" speed="0.20" angle="90.00" x="83.19" y="139.77"/>
        <vehicle id="4_2" eclass="HBEFA3/PC_G_EU4" CO2="2633.60" CO="162.40" HC="0.80" NOx="1.20" PMx="0.07" fuel="1.13" electricity="0.00" noise="59.20" route="routecenter" type="4" waiting="0.00" lane="center_0" pos="101.43" speed="0.15" angle="90.00" x="501.44" y="136.47"/>
        <vehicle id="4_3" eclass="HBEFA3/PC_G_EU4" CO2="2642.03" CO="162.06" HC="0.80" NOx="1.21" PMx="0.07" fuel="1.14" electricity="0.00" noise="59.85" route="routecenter" type="4" waiting="0.00" lane="center_1" pos="107.64" speed="0.17" angle="90.00" x="507.67" y="139.77"/>
        <vehicle id="4_4" eclass="HBEFA3/PC_G_EU4" CO2="2647.37" CO="161.90" HC="0.80" NOx="1.21" PMx="0.07" fuel="1.14" electricity="0.00" noise="60.19" route="!4_4!var#1" type="4" waiting="0.00" lane="inflow_merge_0" pos="23.81" speed="0.19" angle="45.00" x="276.59" y="15.67"/>
    </timestep>
    <timestep time="0.60">
        <vehicle id="1_0" eclass="HBEFA3/PC_G_EU4" CO2="2672.84" CO="159.46" HC="0.79" NOx="1.22" PMx="0.07" fuel="1.15" electricity="0.00" noise="60.47" route="routeleft" type="1" waiting="0.00" lane="left_0" pos="11.67" speed="0.36" angle="90.00" x="111.36" y="136.47"/>
        <vehicle id="1_1" eclass="HBEFA3/PC_G_EU4" CO2="2655.72" CO="159.99" HC="0.79" NOx="1.21" PMx="0.07" fuel="1.14" electricity="0.00" noise="59.90" route="routeleft" type="1" waiting="0.00" lane="left_1" pos="0.09" speed="0.31" angle="90.00" x="100.09" y="139.77"/>
        <vehicle id="1_2" eclass="HBEFA3/PC_G_EU4" CO2="2671.85" CO="159.57" HC="0.79" NOx="1.22" PMx="0.07" fuel="1.15" electricity="0.00" noise="60.47" route="routeleft" type="1" waiting="0.00" lane="left_0" pos="129.92" speed="0.35" angle="90.00" x="226.47" y="136.47"/>
        <vehicle id="1_3" eclass="HBEFA3/PC_G_EU4" CO2="2662.09" CO="159.81" HC="0.79" NOx="1.21" PMx="0.07" fuel="1.14" electricity="0.00" noise="60.14" route="routeleft" type="1" waiting="0.00" lane="left_1" pos="126.78" speed="0.33" angle="90.00" x="223.41" y="139.77"/>
        <vehicle id="1_4" eclass="HBEFA3/PC_G_EU4" CO2="2655.14" CO="159.67" HC="0.79" NOx="1.21" PMx="0.06" fuel="1.14" electricity="0.00" noise="59.78" route="routeleft" type="1" waiting="0.00" lane="left_0" pos="250.43" speed="0.33" angle="90.00" x="343.77" y="136.47"/>
        <vehicle id="2_0" eclass="HBEFA3/PC_G_EU4" CO2="2658.98" CO="159.02" HC="0.79" NOx="1.21" PMx="0.06" fuel="1.14" electricity="0.00" noise="59.79" route="routeleft" type="2" waiting="0.00" lane="left_1" pos="243.61" speed="0.37" angle="90.00" x="337.13" y="139.77"/>
        <vehicle id="2_1" eclass="HBEFA3/PC_G_EU4" CO2="2675.49" CO="159.18" HC="0.79" NOx="1.22" PMx="0.07" fuel="1.15" electricity="0.00" noise="60.48" route="routeright" type="2" waiting="0.00" lane="right_0" pos="61.94" speed="0.38" angle="90.00" x="668.68" y="136.47"/>
        <vehicle id="2_2" eclass="HBEFA3/PC_G_EU4" CO2="2651.02" CO="159.84" HC="0.79" NOx="1.21" PMx="0.06" fuel="1.14" electricity="0.00" noise="59.63" route="routeright" type="2" waiting="0.00" lane="right_1" pos="65.93" speed="0.31" angle="90.00" x="672.59" y="139.77"/>
        <vehicle id="2_3" eclass="HBEFA3/PC_G_EU4" CO2="2646.73" CO="159.16" HC="0.79" NOx="1.21" PMx="0.06" fuel="1.14" electricity="0.00" noise="59.29" route="routeright" type="2" waiting="0.00" lane="right_0" pos="187.75" speed="0.35" angle="90.00" x="791.99" y="136.47"/>
        <vehicle id="2_4" eclass="HBEFA3/PC_G_EU4" CO2="2672.35" CO="159.51" HC="0.79" NOx="1.22" PMx="0.07" fuel="1.15" electricity="0.00" noise="60.47" route="routeright" type="2" waiting="0.00" lane="right_1" pos="186.81" speed="0.36" angle="90.00" x="791.06" y="139.77"/>
        <vehicle id="3_0" eclass="HBEFA3/PC_G_EU4" CO2="2650.67" CO="159.11" HC="0.79" NOx="1.21" PMx="0.06" fuel="1.14" electricity="0.00" noise="59.45" route="routeright" type="3" waiting="0.00" lane="right_0" pos="294.75" speed="0.35" angle="90.00" x="896.85" y="136.47"/>
        <vehicle id="3_1" eclass="HBEFA3/PC_G_EU4" CO2="2678.34" CO="158.88" HC="0.79" NOx="1.22" PMx="0.07" fuel="1.15" electricity="0.00" noise="60.49" route="routeright" type="3" waiting="0.00" lane="right_1" pos="298.17" speed="0.40" angle="90.00" x="900.21" y="139.77"/>
        <vehicle id="3_2" eclass="HBEFA3/PC_G_EU4" CO2="2671.72" CO="158.92" HC="0.79" NOx="1.22" PMx="0.07" fuel="1.15" electricity="0.00" noise="60.26" route="routemerge" type="3" waiting="0.00" lane="merge_0" pos="27.94" speed="0.39" angle="45.00" x="348.10" y="87.18"/>
        <vehicle id="3_3" eclass="HBEFA3/PC_G_EU4" CO2="2676.39" CO="159.08" HC="0.79" NOx="1.22" PMx="0.07" fuel="1.15" electricity="0.00" noise="60.48" route="routediverge" type="3" waiting="0.00" lane="diverge_0" pos="38.45" speed="0.39" angle="135.00" x="632.14" y="106.95"/>
        <vehicle id="3_4" eclass="HBEFA3/PC_G_EU4" CO2="2656.97" CO="159.04" HC="0.79" NOx="1.21" PMx="0.06" fuel="1.14" electricity="0.00" noise="59.71" route="routediverge" type="3" waiting="0.00" lane="diverge_0" pos="166.57" speed="0.37" angle="135.00" x="717.88" y="21.20"/>
        <vehicle id="4_0" eclass="HBEFA3/PC_G_EU4" CO2="2673.97" CO="159.34" HC="0.79" NOx="1.22" PMx="0.07" fuel="1.15" electricity="0.00" noise="60.48" route="routeinflow_highway" type="4" waiting="0.00" lane="inflow_highway_0" pos="77.79" speed="0.37" angle="90.00" x="77.79" y="136.47"/>
        <vehicle id="4_1" eclass="HBEFA3/PC_G_EU4" CO2="2678.31" CO="158.88" HC="0.79" NOx="1.22" PMx="0.07" fuel="1.15" electricity="0.00" noise="60.49" route="routeinflow_highway" type="4" waiting="0.00" lane="inflow_highway_1" pos="83.27" speed="0.40" angle="90.00" x="83.27" y="139.77"/>
        <vehicle id="4_2" eclass="HBEFA3/PC_G_EU4" CO2="2665.77" CO="159.72" HC="0.79" NOx="1.21" PMx="0.07" fuel="1.15" electricity="0.00" noise="60.27" route="routecenter" type="4" waiting="0.00" lane="center_0" pos="101.50" speed="0.34" angle="90.00" x="501.50" y="136.47"/>
        <vehicle id="4_3" eclass="HBEFA3/PC_G_EU4" CO2="2674.86" CO="159.25" HC="0.79" NOx="1.22" PMx="0.07" fuel="1.15" electricity="0.00" noise="60.48" route="routecenter" type="4" waiting="0.00" lane="center_1" pos="107.71" speed="0.37" angle="90.00" x="507.74" y="139.77"/>
        <vehicle id="4_4" eclass="HBEFA3/PC_G_EU4" CO2="2641.50" CO="159.39" HC="0.79" NOx="1.20" PMx="0.06" fuel="1.14" electricity="0.00" noise="59.08" route="!4_4!var#1" type="4" waiting="0.00" lane="inflow_merge_0" pos="23.88" speed="0.33" angle="45.00" x="276.63" y="15.71"/>
    </timestep>
    <timestep time="0.80">
        <vehicle id="1_0" eclass="HBEFA3/PC_G_EU4" CO2="2681.49" CO="156.57" HC="0.78" NOx="1.22" PMx="0.06" fuel="1.15" electricity="0.00" noise="60.04" route="routeleft" type="1" waiting="0.00" lane="left_0" pos="11.78" speed="0.54" angle="90.00" x="111.46" y="136.47"/>
        <vehicle id="1_1" eclass="HBEFA3/PC_G_EU4" CO2="2669.71" CO="157.35" HC="0.78" NOx="1.21" PMx="0.06" fuel="1.15" electricity="0.00" noise="59.83" route="routeleft" type="1" waiting="0.00" lane="left_1" pos="0.18" speed="0.48" angle="90.00" x="100.18" y="139.77"/>
        <vehicle id="1_2" eclass="HBEFA3/PC_G_EU4" CO2="2686.35" CO="156.68" HC="0.78" NOx="1.22" PMx="0.06" fuel="1.15" electricity="0.00" noise="60.20" route="routeleft" type="1" waiting="0.00" lane="left_0" pos="130.03" speed="0.54" angle="90.00" x="226.57" y="136.47"/>
        <vehicle id="1_3" eclass="HBEFA3/PC_G_EU4" CO2="2691.37" CO="157.04" HC="0.78" NOx="1.22" PMx="0.06" fuel="1.16" electricity="0.00" noise="60.41" route="routeleft" type="1" waiting="0.00" lane="left_1" pos="126.89" speed="0.52" angle="90.00" x="223.51" y="139.77"/>
        <vehicle id="1_4" eclass="HBEFA3/PC_G_EU4" CO2="2673.99" CO="157.07" HC="0.78" NOx="1.21" PMx="0.06" fuel="1.15" electricity="0.00" noise="59.92" route="routeleft" type="1" waiting="0.00" lane="left_0" pos="250.53" speed="0.50" angle="90.00" x="343.87" y="136.47"/>
        <vehicle id="2_0" eclass="HBEFA3/PC_G_EU4" CO2="2647.25" CO="156.51" HC="0.77" NOx="1.20" PMx="0.06" fuel="1.14" electricity="0.00" noise="59.01" route="routeleft" type="2" waiting="0.00" lane="left_1" pos="243.71" speed="0.50" angle="90.00" x="337.22" y="139.77"/>
        <vehicle id="2_1" eclass="HBEFA3/PC_G_EU4" CO2="2681.62" CO="156.28" HC="0.77" NOx="1.22" PMx="0.06" fuel="1.15" electricity="0.00" noise="60.00" route="routeright" type="2" waiting="0.00" lane="right_0" pos="62.05" speed="0.55" angle="90.00" x="668.79" y="136.47"/>
        <vehicle id="2_2" eclass="HBEFA3/PC_G_EU4" CO2="2692.43" CO="157.25" HC="0.78" NOx="1.22" PMx="0.06" fuel="1.16" electricity="0.00" noise="60.49" route="routeright" type="2" waiting="0.00" lane="right_1" pos="66.03" speed="0.51" angle="90.00" x="672.69" y="139.77"/>
        <vehicle id="2_3" eclass="HBEFA3/PC_G_EU4" CO2="2680.17" CO="156.77" HC="0.78" NOx="1.22" PMx="0.06" fuel="1.15" electricity="0.00" noise="60.04" route="routeright" type="2" waiting="0.00" lane="right_0" pos="187.86" speed="0.52" angle="90.00" x="792.09" y="136.47"/>
        <vehicle id="2_4" eclass="HBEFA3/PC_G_EU4" CO2="2684.44" CO="156.62" HC="0.78" NOx="1.22" PMx="0.06" fuel="1.15" electricity="0.00" noise="60.14" route="routeright" type="2" waiting="0.00" lane="right_1" pos="186.92" speed="0.54" angle="90.00" x="791.17" y="139.77"/>
        <vehicle id="3_0" eclass="HBEFA3/PC_G_EU4" CO2="2699.62" CO="156.66" HC="0.78" NOx="1.22" PMx="0.06" fuel="1.16" electricity="0.00" noise="60.55" route="routeright" type="3" waiting="0.00" lane="right_0" pos="294.86" speed="0.55" angle="90.00" x="896.96" y="136.47"/>
        <vehicle id="3_1" eclass="HBEFA3/PC_G_EU4" CO2="2706.10" CO="156.00" HC="0.77" NOx="1.23" PMx="0.06" fuel="1.16" electricity="0.00" noise="60.57" route="routeright" type="3" waiting="0.00" lane="right_1" pos="298.29" speed="0.60" angle="90.00" x="900.32" y="139.77"/>
        <vehicle id="3_2" eclass="HBEFA3/PC_G_EU4" CO2="2694.69" CO="156.13" HC="0.77" NOx="1.22" PMx="0.06" fuel="1.16" electricity="0.00" noise="60.31" route="routemerge" type="3" waiting="0.00" lane="merge_0" pos="28.06" speed="0.58" angle="45.00" x="348.17" y="87.26"/>
        <vehicle id="3_3" eclass="HBEFA3/PC_G_EU4" CO2="2704.10" CO="156.20" HC="0.77" NOx="1.23" PMx="0.06" fuel="1.16" electricity="0.00" noise="60.56" route="routediverge" type="3" waiting="0.00" lane="diverge_0" pos="38.57" speed="0.59" angle="135.00" x="632.22" y="106.87"/>
        <vehicle id="3_4" eclass="HBEFA3/PC_G_EU4" CO2="2670.75" CO="156.50" HC="0.78" NOx="1.21" PMx="0.06" fuel="1.15" electricity="0.00" noise="59.73" route="routediverge" type="3" waiting="0.00" lane="diverge_0" pos="166.67" speed="0.53" angle="135.00" x="717.95" y="21.13"/>
        <vehicle id="4_0" eclass="HBEFA3/PC_G_EU4" CO2="2640.43" CO="156.55" HC="0.77" NOx="1.20" PMx="0.06" fuel="1.14" electricity="0.00" noise="58.79" route="routeinflow_highway" type="4" waiting="0.00" lane="inflow_highway_0" pos="77.89" speed="0.49" angle="90.00" x="77.89" y="136.47"/>
        <vehicle id="4_1" eclass="HBEFA3/PC_G_EU4" CO2="2696.32" CO="155.98" HC="0.77" NOx="1.22" PMx="0.06" fuel="1.16" electricity="0.00" noise="60.33" route="routeinflow_highway" type="4" waiting="0.00" lane="inflow_highway_1" pos="83.39" speed="0.59" angle="90.00" x="83.39" y="139.77"/>
        <vehicle id="4_2" eclass="HBEFA3/PC_G_EU4" CO2="2648.35" CO="157.02" HC="0.78" NOx="1.20" PMx="0.06" fuel="1.14" electricity="0.00" noise="59.09" route="routecenter" type="4" waiting="0.00" lane="center_0" pos="101.59" speed="0.47" angle="90.00" x="501.60" y="136.47"/>
        <vehicle id="4_3" eclass="HBEFA3/PC_G_EU4" CO2="2666.36" CO="156.37" HC="0.77" NOx="1.21" PMx="0.06" fuel="1.15" electricity="0.00" noise="59.58" route="routecenter" type="4" waiting="0.00" lane="center_1" pos="107.82" speed="0.53" angle="90.00" x="507.85" y="139.77"/>
        <vehicle id="4_4" eclass="HBEFA3/PC_G_EU4" CO2="2695.88" CO="157.05" HC="0.78" NOx="1.22" PMx="0.06" fuel="1.16" electricity="0.00" noise="60.54" route="!4_4!var#1" type="4" waiting="0.00" lane="inflow_merge_0" pos="23.98" speed="0.53" angle="45.00" x="276.71" y="15.79"/>
    </timestep>
    <timestep time="1.00">
        <vehicle id="1_0" eclass="HBEFA3/PC_G_EU4" CO2="2713.96" CO="153.99" HC="0.76" NOx="1.23" PMx="0.06" fuel="1.17" electricity="0.00" noise="60.38" route="routeleft" type="1" waiting="0.00" lane="left_0" pos="11.92" speed="0.73" angle="90.00" x="111.60" y="136.47"/>