<?xml version="1.0" encoding="UTF-8"?>

<!-- generated on Monday 19 November 2018 08:06:12 PM PST by SUMO gui Version b'v0_31_0-812-g1d4338a'
<?xml version="1.0" encoding="UTF-8"?>

<configuration xmlns:xsi="http://www.w3.org/2001/XMLSchema-instance" xsi:noNamespaceSchemaLocation="http://sumo.dlr.de/xsd/sumoConfiguration.xsd">

    <input>
        <net-file value="/home/keshav/flow/flow/scenarios/debug/cfg/merge-baseline_20181119-2006101542686770.7409556.net.xml"/>
        <route-files value="/home/keshav/flow/flow/scenarios/debug/cfg/merge-baseline_20181119-2006101542686770.7409556.rou.xml"/>
        <additional-files value="/home/keshav/flow/flow/scenarios/debug/cfg/merge-baseline_20181119-2006101542686770.7409556.add.xml"/>
    </input>

    <output>
        <emission-output value="./data/merge-baseline_20181119-2006101542686770.7409556-emission.xml"/>
    </output>

    <time>
        <begin value="0"/>
        <step-length value="0.2"/>
    </time>

    <processing>
        <time-to-teleport value="-1"/>
    </processing>

    <report>
        <no-step-log value="true"/>
    </report>

    <traci_server>
        <remote-port value="52133"/>
    </traci_server>

    <gui_only>
        <gui-settings-file value="/home/keshav/flow/flow/scenarios/debug/cfg/merge-baseline_20181119-2006101542686770.7409556.gui.cfg"/>
        <tracker-interval value="0.2"/>
    </gui_only>

</configuration>
-->

<emission-export xmlns:xsi="http://www.w3.org/2001/XMLSchema-instance" xsi:noNamespaceSchemaLocation="http://sumo.dlr.de/xsd/emission_file.xsd">
    <timestep time="0.00">
        <vehicle id="1_0" eclass="HBEFA3/PC_G_EU4" CO2="2624.72" CO="164.78" HC="0.81" NOx="1.20" PMx="0.07" fuel="1.13" electricity="0.00" noise="55.94" route="routecenter" type="1" waiting="0.00" lane="center_0" pos="11.12" speed="0.00" angle="90.00" x="410.72" y="136.47"/>
        <vehicle id="1_1" eclass="HBEFA3/PC_G_EU4" CO2="2624.72" CO="164.78" HC="0.81" NOx="1.20" PMx="0.07" fuel="1.13" electricity="0.00" noise="55.94" route="routecenter" type="1" waiting="0.00" lane="center_1" pos="0.00" speed="0.00" angle="90.00" x="399.55" y="139.77"/>
        <vehicle id="1_2" eclass="HBEFA3/PC_G_EU4" CO2="2624.72" CO="164.78" HC="0.81" NOx="1.20" PMx="0.07" fuel="1.13" electricity="0.00" noise="55.94" route="routecenter" type="1" waiting="0.00" lane="center_0" pos="121.34" speed="0.00" angle="90.00" x="521.44" y="136.47"/>
        <vehicle id="1_3" eclass="HBEFA3/PC_G_EU4" CO2="2624.72" CO="164.78" HC="0.81" NOx="1.20" PMx="0.07" fuel="1.13" electricity="0.00" noise="55.94" route="routecenter" type="1" waiting="0.00" lane="center_1" pos="123.71" speed="0.00" angle="90.00" x="523.82" y="139.77"/>
        <vehicle id="1_4" eclass="HBEFA3/PC_G_EU4" CO2="2624.72" CO="164.78" HC="0.81" NOx="1.20" PMx="0.07" fuel="1.13" electricity="0.00" noise="55.94" route="routeinflow_highway" type="1" waiting="0.00" lane="inflow_highway_0" pos="45.85" speed="0.00" angle="90.00" x="45.85" y="136.47"/>
        <vehicle id="2_0" eclass="HBEFA3/PC_G_EU4" CO2="2624.72" CO="164.78" HC="0.81" NOx="1.20" PMx="0.07" fuel="1.13" electricity="0.00" noise="55.94" route="routeinflow_highway" type="2" waiting="0.00" lane="inflow_highway_1" pos="48.98" speed="0.00" angle="90.00" x="48.98" y="139.77"/>
        <vehicle id="2_1" eclass="HBEFA3/PC_G_EU4" CO2="2624.72" CO="164.78" HC="0.81" NOx="1.20" PMx="0.07" fuel="1.13" electricity="0.00" noise="55.94" route="routeinflow_merge" type="2" waiting="0.00" lane="inflow_merge_0" pos="69.29" speed="0.00" angle="45.00" x="308.74" y="47.82"/>
        <vehicle id="2_2" eclass="HBEFA3/PC_G_EU4" CO2="2624.72" CO="164.78" HC="0.81" NOx="1.20" PMx="0.07" fuel="1.13" electricity="0.00" noise="55.94" route="routemerge" type="2" waiting="0.00" lane="merge_0" pos="90.76" speed="0.00" angle="45.00" x="387.76" y="126.85"/>
        <vehicle id="2_3" eclass="HBEFA3/PC_G_EU4" CO2="2624.72" CO="164.78" HC="0.81" NOx="1.20" PMx="0.07" fuel="1.13" electricity="0.00" noise="55.94" route="routediverge" type="2" waiting="0.00" lane="diverge_0" pos="96.33" speed="0.00" angle="135.00" x="670.88" y="68.21"/>
        <vehicle id="2_4" eclass="HBEFA3/PC_G_EU4" CO2="2624.72" CO="164.78" HC="0.81" NOx="1.20" PMx="0.07" fuel="1.13" electricity="0.00" noise="55.94" route="routeright" type="2" waiting="0.00" lane="right_0" pos="21.47" speed="0.00" angle="90.00" x="629.02" y="136.47"/>
        <vehicle id="3_0" eclass="HBEFA3/PC_G_EU4" CO2="2624.72" CO="164.78" HC="0.81" NOx="1.20" PMx="0.07" fuel="1.13" electricity="0.00" noise="55.94" route="routeright" type="3" waiting="0.00" lane="right_1" pos="16.56" speed="0.00" angle="90.00" x="624.20" y="139.77"/>
        <vehicle id="3_1" eclass="HBEFA3/PC_G_EU4" CO2="2624.72" CO="164.78" HC="0.81" NOx="1.20" PMx="0.07" fuel="1.13" electricity="0.00" noise="55.94" route="routeright" type="3" waiting="0.00" lane="right_0" pos="137.54" speed="0.00" angle="90.00" x="742.77" y="136.47"/>
        <vehicle id="3_2" eclass="HBEFA3/PC_G_EU4" CO2="2624.72" CO="164.78" HC="0.81" NOx="1.20" PMx="0.07" fuel="1.13" electricity="0.00" noise="55.94" route="routeright" type="3" waiting="0.00" lane="right_1" pos="150.24" speed="0.00" angle="90.00" x="755.22" y="139.77"/>
        <vehicle id="3_3" eclass="HBEFA3/PC_G_EU4" CO2="2624.72" CO="164.78" HC="0.81" NOx="1.20" PMx="0.07" fuel="1.13" electricity="0.00" noise="55.94" route="routeright" type="3" waiting="0.00" lane="right_0" pos="257.39" speed="0.00" angle="90.00" x="860.24" y="136.47"/>
        <vehicle id="3_4" eclass="HBEFA3/PC_G_EU4" CO2="2624.72" CO="164.78" HC="0.81" NOx="1.20" PMx="0.07" fuel="1.13" electricity="0.00" noise="55.94" route="routeright" type="3" waiting="0.00" lane="right_1" pos="253.78" speed="0.00" angle="90.00" x="856.69" y="139.77"/>
        <vehicle id="4_0" eclass="HBEFA3/PC_G_EU4" CO2="2624.72" CO="164.78" HC="0.81" NOx="1.20" PMx="0.07" fuel="1.13" electricity="0.00" noise="55.94" route="routeright" type="4" waiting="0.00" lane="right_0" pos="383.74" speed="0.00" angle="90.00" x="984.07" y="136.47"/>
        <vehicle id="4_1" eclass="HBEFA3/PC_G_EU4" CO2="2624.72" CO="164.78" HC="0.81" NOx="1.20" PMx="0.07" fuel="1.13" electricity="0.00" noise="55.94" route="routeright" type="4" waiting="0.00" lane="right_1" pos="381.87" speed="0.00" angle="90.00" x="982.23" y="139.77"/>
        <vehicle id="4_2" eclass="HBEFA3/PC_G_EU4" CO2="2624.72" CO="164.78" HC="0.81" NOx="1.20" PMx="0.07" fuel="1.13" electricity="0.00" noise="55.94" route="routeleft" type="4" waiting="0.00" lane="left_0" pos="94.03" speed="0.00" angle="90.00" x="191.53" y="136.47"/>
        <vehicle id="4_3" eclass="HBEFA3/PC_G_EU4" CO2="2624.72" CO="164.78" HC="0.81" NOx="1.20" PMx="0.07" fuel="1.13" electricity="0.00" noise="55.94" route="routeleft" type="4" waiting="0.00" lane="left_1" pos="103.74" speed="0.00" angle="90.00" x="200.98" y="139.77"/>
        <vehicle id="4_4" eclass="HBEFA3/PC_G_EU4" CO2="2624.72" CO="164.78" HC="0.81" NOx="1.20" PMx="0.07" fuel="1.13" electricity="0.00" noise="55.94" route="routeleft" type="4" waiting="0.00" lane="left_0" pos="217.94" speed="0.00" angle="90.00" x="312.14" y="136.47"/>
    </timestep>
    <timestep time="0.20">
        <vehicle id="1_0" eclass="HBEFA3/PC_G_EU4" CO2="2624.72" CO="164.78" HC="0.81" NOx="1.20" PMx="0.07" fuel="1.13" electricity="0.00" noise="55.94" route="routecenter" type="1" waiting="0.00" lane="center_0" pos="11.12" speed="0.00" angle="90.00" x="410.72" y="136.47"/>
        <vehicle id="1_1" eclass="HBEFA3/PC_G_EU4" CO2="2624.72" CO="164.78" HC="0.81" NOx="1.20" PMx="0.07" fuel="1.13" electricity="0.00" noise="55.94" route="routecenter" type="1" waiting="0.00" lane="center_1" pos="0.00" speed="0.00" angle="90.00" x="399.55" y="139.77"/>
        <vehicle id="1_2" eclass="HBEFA3/PC_G_EU4" CO2="2624.72" CO="164.78" HC="0.81" NOx="1.20" PMx="0.07" fuel="1.13" electricity="0.00" noise="55.94" route="routecenter" type="1" waiting="0.00" lane="center_0" pos="121.34" speed="0.00" angle="90.00" x="521.44" y="136.47"/>
        <vehicle id="1_3" eclass="HBEFA3/PC_G_EU4" CO2="2624.72" CO="164.78" HC="0.81" NOx="1.20" PMx="0.07" fuel="1.13" electricity="0.00" noise="55.94" route="routecenter" type="1" waiting="0.00" lane="center_1" pos="123.71" speed="0.00" angle="90.00" x="523.82" y="139.77"/>
        <vehicle id="1_4" eclass="HBEFA3/PC_G_EU4" CO2="2624.72" CO="164.78" HC="0.81" NOx="1.20" PMx="0.07" fuel="1.13" electricity="0.00" noise="55.94" route="routeinflow_highway" type="1" waiting="0.00" lane="inflow_highway_0" pos="45.85" speed="0.00" angle="90.00" x="45.85" y="136.47"/>
        <vehicle id="2_0" eclass="HBEFA3/PC_G_EU4" CO2="2624.72" CO="164.78" HC="0.81" NOx="1.20" PMx="0.07" fuel="1.13" electricity="0.00" noise="55.94" route="routeinflow_highway" type="2" waiting="0.00" lane="inflow_highway_1" pos="48.98" speed="0.00" angle="90.00" x="48.98" y="139.77"/>
        <vehicle id="2_1" eclass="HBEFA3/PC_G_EU4" CO2="2624.72" CO="164.78" HC="0.81" NOx="1.20" PMx="0.07" fuel="1.13" electricity="0.00" noise="55.94" route="routeinflow_merge" type="2" waiting="0.00" lane="inflow_merge_0" pos="69.29" speed="0.00" angle="45.00" x="308.74" y="47.82"/>
        <vehicle id="2_2" eclass="HBEFA3/PC_G_EU4" CO2="2624.72" CO="164.78" HC="0.81" NOx="1.20" PMx="0.07" fuel="1.13" electricity="0.00" noise="55.94" route="routemerge" type="2" waiting="0.00" lane="merge_0" pos="90.76" speed="0.00" angle="45.00" x="387.76" y="126.85"/>
        <vehicle id="2_3" eclass="HBEFA3/PC_G_EU4" CO2="2624.72" CO="164.78" HC="0.81" NOx="1.20" PMx="0.07" fuel="1.13" electricity="0.00" noise="55.94" route="routediverge" type="2" waiting="0.00" lane="diverge_0" pos="96.33" speed="0.00" angle="135.00" x="670.88" y="68.21"/>
        <vehicle id="2_4" eclass="HBEFA3/PC_G_EU4" CO2="2624.72" CO="164.78" HC="0.81" NOx="1.20" PMx="0.07" fuel="1.13" electricity="0.00" noise="55.94" route="routeright" type="2" waiting="0.00" lane="right_0" pos="21.47" speed="0.00" angle="90.00" x="629.02" y="136.47"/>
        <vehicle id="3_0" eclass="HBEFA3/PC_G_EU4" CO2="2624.72" CO="164.78" HC="0.81" NOx="1.20" PMx="0.07" fuel="1.13" electricity="0.00" noise="55.94" route="routeright" type="3" waiting="0.00" lane="right_1" pos="16.56" speed="0.00" angle="90.00" x="624.20" y="139.77"/>
        <vehicle id="3_1" eclass="HBEFA3/PC_G_EU4" CO2="2624.72" CO="164.78" HC="0.81" NOx="1.20" PMx="0.07" fuel="1.13" electricity="0.00" noise="55.94" route="routeright" type="3" waiting="0.00" lane="right_0" pos="137.54" speed="0.00" angle="90.00" x="742.77" y="136.47"/>
        <vehicle id="3_2" eclass="HBEFA3/PC_G_EU4" CO2="2624.72" CO="164.78" HC="0.81" NOx="1.20" PMx="0.07" fuel="1.13" electricity="0.00" noise="55.94" route="routeright" type="3" waiting="0.00" lane="right_1" pos="150.24" speed="0.00" angle="90.00" x="755.22" y="139.77"/>
        <vehicle id="3_3" eclass="HBEFA3/PC_G_EU4" CO2="2624.72" CO="164.78" HC="0.81" NOx="1.20" PMx="0.07" fuel="1.13" electricity="0.00" noise="55.94" route="routeright" type="3" waiting="0.00" lane="right_0" pos="257.39" speed="0.00" angle="90.00" x="860.24" y="136.47"/>
        <vehicle id="3_4" eclass="HBEFA3/PC_G_EU4" CO2="2624.72" CO="164.78" HC="0.81" NOx="1.20" PMx="0.07" fuel="1.13" electricity="0.00" noise="55.94" route="routeright" type="3" waiting="0.00" lane="right_1" pos="253.78" speed="0.00" angle="90.00" x="856.69" y="139.77"/>
        <vehicle id="4_0" eclass="HBEFA3/PC_G_EU4" CO2="2624.72" CO="164.78" HC="0.81" NOx="1.20" PMx="0.07" fuel="1.13" electricity="0.00" noise="55.94" route="routeright" type="4" waiting="0.00" lane="right_0" pos="383.74" speed="0.00" angle="90.00" x="984.07" y="136.47"/>
        <vehicle id="4_1" eclass="HBEFA3/PC_G_EU4" CO2="2624.72" CO="164.78" HC="0.81" NOx="1.20" PMx="0.07" fuel="1.13" electricity="0.00" noise="55.94" route="routeright" type="4" waiting="0.00" lane="right_1" pos="381.87" speed="0.00" angle="90.00" x="982.23" y="139.77"/>
        <vehicle id="4_2" eclass="HBEFA3/PC_G_EU4" CO2="2624.72" CO="164.78" HC="0.81" NOx="1.20" PMx="0.07" fuel="1.13" electricity="0.00" noise="55.94" route="routeleft" type="4" waiting="0.00" lane="left_0" pos="94.03" speed="0.00" angle="90.00" x="191.53" y="136.47"/>
        <vehicle id="4_3" eclass="HBEFA3/PC_G_EU4" CO2="2624.72" CO="164.78" HC="0.81" NOx="1.20" PMx="0.07" fuel="1.13" electricity="0.00" noise="55.94" route="routeleft" type="4" waiting="0.00" lane="left_1" pos="103.74" speed="0.00" angle="90.00" x="200.98" y="139.77"/>
        <vehicle id="4_4" eclass="HBEFA3/PC_G_EU4" CO2="2624.72" CO="164.78" HC="0.81" NOx="1.20" PMx="0.07" fuel="1.13" electricity="0.00" noise="55.94" route="routeleft" type="4" waiting="0.00" lane="left_0" pos="217.94" speed="0.00" angle="90.00" x="312.14" y="136.47"/>
    </timestep>
    <timestep time="0.40">
        <vehicle id="1_0" eclass="HBEFA3/PC_G_EU4" CO2="2651.22" CO="161.80" HC="0.80" NOx="1.21" PMx="0.07" fuel="1.14" electricity="0.00" noise="60.41" route="routecenter" type="1" waiting="0.00" lane="center_0" pos="11.16" speed="0.20" angle="90.00" x="410.76" y="136.47"/>
        <vehicle id="1_1" eclass="HBEFA3/PC_G_EU4" CO2="2639.20" CO="162.16" HC="0.80" NOx="1.21" PMx="0.07" fuel="1.13" electricity="0.00" noise="59.65" route="routecenter" type="1" waiting="0.00" lane="center_1" pos="0.03" speed="0.17" angle="90.00" x="399.58" y="139.77"/>
        <vehicle id="1_2" eclass="HBEFA3/PC_G_EU4" CO2="2628.69" CO="162.68" HC="0.80" NOx="1.20" PMx="0.07" fuel="1.13" electricity="0.00" noise="58.70" route="routecenter" type="1" waiting="0.00" lane="center_0" pos="121.37" speed="0.12" angle="90.00" x="521.47" y="136.47"/>
        <vehicle id="1_3" eclass="HBEFA3/PC_G_EU4" CO2="2651.22" CO="161.80" HC="0.80" NOx="1.21" PMx="0.07" fuel="1.14" electricity="0.00" noise="60.41" route="routecenter" type="1" waiting="0.00" lane="center_1" pos="123.75" speed="0.20" angle="90.00" x="523.86" y="139.77"/>
        <vehicle id="1_4" eclass="HBEFA3/PC_G_EU4" CO2="2651.22" CO="161.80" HC="0.80" NOx="1.21" PMx="0.07" fuel="1.14" electricity="0.00" noise="60.41" route="!1_4!var#1" type="1" waiting="0.00" lane="inflow_highway_0" pos="45.89" speed="0.20" angle="90.00" x="45.89" y="136.47"/>
        <vehicle id="2_0" eclass="HBEFA3/PC_G_EU4" CO2="2635.24" CO="162.32" HC="0.80" NOx="1.21" PMx="0.07" fuel="1.13" electricity="0.00" noise="59.34" route="routeinflow_highway" type="2" waiting="0.00" lane="inflow_highway_1" pos="49.01" speed="0.15" angle="90.00" x="49.01" y="139.77"/>
        <vehicle id="2_1" eclass="HBEFA3/PC_G_EU4" CO2="2649.89" CO="161.84" HC="0.80" NOx="1.21" PMx="0.07" fuel="1.14" electricity="0.00" noise="60.34" route="routeinflow_merge" type="2" waiting="0.00" lane="inflow_merge_0" pos="69.33" speed="0.20" angle="45.00" x="308.77" y="47.85"/>
        <vehicle id="2_2" eclass="HBEFA3/PC_G_EU4" CO2="2633.76" CO="162.39" HC="0.80" NOx="1.20" PMx="0.07" fuel="1.13" electricity="0.00" noise="59.21" route="routemerge" type="2" waiting="0.00" lane="merge_0" pos="90.79" speed="0.15" angle="45.00" x="387.78" y="126.87"/>
        <vehicle id="2_3" eclass="HBEFA3/PC_G_EU4" CO2="2634.16" CO="162.37" HC="0.80" NOx="1.20" PMx="0.07" fuel="1.13" electricity="0.00" noise="59.24" route="routediverge" type="2" waiting="0.00" lane="diverge_0" pos="96.36" speed="0.15" angle="135.00" x="670.90" y="68.19"/>
        <vehicle id="2_4" eclass="HBEFA3/PC_G_EU4" CO2="2641.32" CO="162.08" HC="0.80" NOx="1.21" PMx="0.07" fuel="1.14" electricity="0.00" noise="59.80" route="routeright" type="2" waiting="0.00" lane="right_0" pos="21.50" speed="0.17" angle="90.00" x="629.05" y="136.47"/>
        <vehicle id="3_0" eclass="HBEFA3/PC_G_EU4" CO2="2649.45" CO="161.85" HC="0.80" NOx="1.21" PMx="0.07" fuel="1.14" electricity="0.00" noise="60.31" route="routeright" type="3" waiting="0.00" lane="right_1" pos="16.59" speed="0.20" angle="90.00" x="624.24" y="139.77"/>
        <vehicle id="3_1" eclass="HBEFA3/PC_G_EU4" CO2="2637.05" CO="162.24" HC="0.80" NOx="1.21" PMx="0.07" fuel="1.13" electricity="0.00" noise="59.48" route="routeright" type="3" waiting="0.00" lane="right_0" pos="137.57" speed="0.16" angle="90.00" x="742.80" y="136.47"/>
        <vehicle id="3_2" eclass="HBEFA3/PC_G_EU4" CO2="2651.22" CO="161.80" HC="0.80" NOx="1.21" PMx="0.07" fuel="1.14" electricity="0.00" noise="60.41" route="routeright" type="3" waiting="0.00" lane="right_1" pos="150.28" speed="0.20" angle="90.00" x="755.26" y="139.77"/>
        <vehicle id="3_3" eclass="HBEFA3/PC_G_EU4" CO2="2651.22" CO="161.80" HC="0.80" NOx="1.21" PMx="0.07" fuel="1.14" electricity="0.00" noise="60.41" route="routeright" type="3" waiting="0.00" lane="right_0" pos="257.43" speed="0.20" angle="90.00" x="860.28" y="136.47"/>
        <vehicle id="3_4" eclass="HBEFA3/PC_G_EU4" CO2="2646.45" CO="161.93" HC="0.80" NOx="1.21" PMx="0.07" fuel="1.14" electricity="0.00" noise="60.13" route="routeright" type="3" waiting="0.00" lane="right_1" pos="253.82" speed="0.19" angle="90.00" x="856.73" y="139.77"/>
        <vehicle id="4_0" eclass="HBEFA3/PC_G_EU4" CO2="2638.47" CO="162.19" HC="0.80" NOx="1.21" PMx="0.07" fuel="1.13" electricity="0.00" noise="59.59" route="routeright" type="4" waiting="0.00" lane="right_0" pos="383.78" speed="0.16" angle="90.00" x="984.10" y="136.47"/>
        <vehicle id="4_1" eclass="HBEFA3/PC_G_EU4" CO2="2651.22" CO="161.80" HC="0.80" NOx="1.21" PMx="0.07" fuel="1.14" electricity="0.00" noise="60.41" route="routeright" type="4" waiting="0.00" lane="right_1" pos="381.91" speed="0.20" angle="90.00" x="982.27" y="139.77"/>
        <vehicle id="4_2" eclass="HBEFA3/PC_G_EU4" CO2="2643.11" CO="162.03" HC="0.80" NOx="1.21" PMx="0.07" fuel="1.14" electricity="0.00" noise="59.92" route="routeleft" type="4" waiting="0.00" lane="left_0" pos="94.06" speed="0.18" angle="90.00" x="191.56" y="136.47"/>
        <vehicle id="4_3" eclass="HBEFA3/PC_G_EU4" CO2="2642.91" CO="162.03" HC="0.80" NOx="1.21" PMx="0.07" fuel="1.14" electricity="0.00" noise="59.90" route="routeleft" type="4" waiting="0.00" lane="left_1" pos="103.77" speed="0.18" angle="90.00" x="201.01" y="139.77"/>
        <vehicle id="4_4" eclass="HBEFA3/PC_G_EU4" CO2="2644.76" CO="161.98" HC="0.80" NOx="1.21" PMx="0.07" fuel="1.14" electricity="0.00" noise="60.03" route="routeleft" type="4" waiting="0.00" lane="left_0" pos="217.98" speed="0.18" angle="90.00" x="312.18" y="136.47"/>
    </timestep>
    <timestep time="0.60">
        <vehicle id="1_0" eclass="HBEFA3/PC_G_EU4" CO2="2678.34" CO="158.88" HC="0.79" NOx="1.22" PMx="0.07" fuel="1.15" electricity="0.00" noise="60.49" route="routecenter" type="1" waiting="0.00" lane="center_0" pos="11.24" speed="0.40" angle="90.00" x="410.84" y="136.47"/>
        <vehicle id="1_1" eclass="HBEFA3/PC_G_EU4" CO2="2673.64" CO="159.38" HC="0.79" NOx="1.22" PMx="0.07" fuel="1.15" electricity="0.00" noise="60.48" route="routecenter" type="1" waiting="0.00" lane="center_1" pos="0.11" speed="0.37" angle="90.00" x="399.66" y="139.77"/>
        <vehicle id="1_2" eclass="HBEFA3/PC_G_EU4" CO2="2657.83" CO="160.11" HC="0.79" NOx="1.21" PMx="0.07" fuel="1.14" electricity="0.00" noise="60.04" route="routecenter" type="1" waiting="0.00" lane="center_0" pos="121.43" speed="0.30" angle="90.00" x="521.53" y="136.47"/>
        <vehicle id="1_3" eclass="HBEFA3/PC_G_EU4" CO2="2678.34" CO="158.88" HC="0.79" NOx="1.22" PMx="0.07" fuel="1.15" electricity="0.00" noise="60.49" route="routecenter" type="1" waiting="0.00" lane="center_1" pos="123.83" speed="0.40" angle="90.00" x="523.94" y="139.77"/>
        <vehicle id="1_4" eclass="HBEFA3/PC_G_EU4" CO2="2676.04" CO="158.89" HC="0.79" NOx="1.22" PMx="0.07" fuel="1.15" electricity="0.00" noise="60.41" route="!1_4!var#1" type="1" waiting="0.00" lane="inflow_highway_0" pos="45.97" speed="0.40" angle="90.00" x="45.97" y="136.47"/>
        <vehicle id="2_0" eclass="HBEFA3/PC_G_EU4" CO2="2654.61" CO="159.76" HC="0.79" NOx="1.21" PMx="0.06" fuel="1.14" electricity="0.00" noise="59.78" route="routeinflow_highway" type="2" waiting="0.00" lane="inflow_highway_1" pos="49.08" speed="0.32" angle="90.00" x="49.08" y="139.77"/>
        <vehicle id="2_1" eclass="HBEFA3/PC_G_EU4" CO2="2677.88" CO="158.93" HC="0.79" NOx="1.22" PMx="0.07" fuel="1.15" electricity="0.00" noise="60.49" route="routeinflow_merge" type="2" waiting="0.00" lane="inflow_merge_0" pos="69.41" speed="0.40" angle="45.00" x="308.83" y="47.91"/>
        <vehicle id="2_2" eclass="HBEFA3/PC_G_EU4" CO2="2670.97" CO="159.66" HC="0.79" NOx="1.22" PMx="0.07" fuel="1.15" electricity="0.00" noise="60.47" route="routemerge" type="2" waiting="0.00" lane="merge_0" pos="90.86" speed="0.35" angle="45.00" x="387.82" y="126.91"/>
        <vehicle id="2_3" eclass="HBEFA3/PC_G_EU4" CO2="2671.19" CO="159.64" HC="0.79" NOx="1.22" PMx="0.07" fuel="1.15" electricity="0.00" noise="60.47" route="routediverge" type="2" waiting="0.00" lane="diverge_0" pos="96.43" speed="0.35" angle="135.00" x="670.94" y="68.14"/>
        <vehicle id="2_4" eclass="HBEFA3/PC_G_EU4" CO2="2659.16" CO="159.42" HC="0.79" NOx="1.21" PMx="0.06" fuel="1.14" electricity="0.00" noise="59.89" route="routeright" type="2" waiting="0.00" lane="right_0" pos="21.57" speed="0.35" angle="90.00" x="629.12" y="136.47"/>
        <vehicle id="3_0" eclass="HBEFA3/PC_G_EU4" CO2="2661.70" CO="159.06" HC="0.79" NOx="1.21" PMx="0.06" fuel="1.14" electricity="0.00" noise="59.91" route="routeright" type="3" waiting="0.00" lane="right_1" pos="16.67" speed="0.37" angle="90.00" x="624.32" y="139.77"/>
        <vehicle id="3_1" eclass="HBEFA3/PC_G_EU4" CO2="2665.70" CO="159.55" HC="0.79" NOx="1.21" PMx="0.07" fuel="1.15" electricity="0.00" noise="60.21" route="routeright" type="3" waiting="0.00" lane="right_0" pos="137.64" speed="0.35" angle="90.00" x="742.87" y="136.47"/>
        <vehicle id="3_2" eclass="HBEFA3/PC_G_EU4" CO2="2678.34" CO="158.88" HC="0.79" NOx="1.22" PMx="0.07" fuel="1.15" electricity="0.00" noise="60.49" route="routeright" type="3" waiting="0.00" lane="right_1" pos="150.36" speed="0.40" angle="90.00" x="755.34" y="139.77"/>
        <vehicle id="3_3" eclass="HBEFA3/PC_G_EU4" CO2="2657.41" CO="159.04" HC="0.79" NOx="1.21" PMx="0.06" fuel="1.14" electricity="0.00" noise="59.73" route="routeright" type="3" waiting="0.00" lane="right_0" pos="257.51" speed="0.37" angle="90.00" x="860.35" y="136.47"/>
        <vehicle id="3_4" eclass="HBEFA3/PC_G_EU4" CO2="2676.61" CO="159.06" HC="0.79" NOx="1.22" PMx="0.07" fuel="1.15" electricity="0.00" noise="60.49" route="routeright" type="3" waiting="0.00" lane="right_1" pos="253.89" speed="0.39" angle="90.00" x="856.81" y="139.77"/>
        <vehicle id="4_0" eclass="HBEFA3/PC_G_EU4" CO2="2673.31" CO="159.41" HC="0.79" NOx="1.22" PMx="0.07" fuel="1.15" electricity="0.00" noise="60.48" route="routeright" type="4" waiting="0.00" lane="right_0" pos="383.85" speed="0.36" angle="90.00" x="984.17" y="136.47"/>
        <vehicle id="4_1" eclass="HBEFA3/PC_G_EU4" CO2="2668.46" CO="158.94" HC="0.79" NOx="1.21" PMx="0.06" fuel="1.15" electricity="0.00" noise="60.14" route="routeright" type="4" waiting="0.00" lane="right_1" pos="381.99" speed="0.38" angle="90.00" x="982.35" y="139.77"/>
        <vehicle id="4_2" eclass="HBEFA3/PC_G_EU4" CO2="2663.28" CO="159.30" HC="0.79" NOx="1.21" PMx="0.06" fuel="1.14" electricity="0.00" noise="60.04" route="routeleft" type="4" waiting="0.00" lane="left_0" pos="94.13" speed="0.36" angle="90.00" x="191.63" y="136.47"/>
        <vehicle id="4_3" eclass="HBEFA3/PC_G_EU4" CO2="2673.73" CO="159.22" HC="0.79" NOx="1.22" PMx="0.07" fuel="1.15" electricity="0.00" noise="60.43" route="routeleft" type="4" waiting="0.00" lane="left_1" pos="103.85" speed="0.37" angle="90.00" x="201.08" y="139.77"/>
        <vehicle id="4_4" eclass="HBEFA3/PC_G_EU4" CO2="2656.14" CO="159.30" HC="0.79" NOx="1.21" PMx="0.06" fuel="1.14" electricity="0.00" noise="59.73" route="routeleft" type="4" waiting="0.00" lane="left_0" pos="218.05" speed="0.35" angle="90.00" x="312.25" y="136.47"/>
    </timestep>
    <timestep time="0.80">
        <vehicle id="1_0" eclass="HBEFA3/PC_G_EU4" CO2="2706.10" CO="156.00" HC="0.77" NOx="1.23" PMx="0.06" fuel="1.16" electricity="0.00" noise="60.57" route="routecenter" type="1" waiting="0.00" lane="center_0" pos="11.36" speed="0.60" angle="90.00" x="410.96" y="136.47"/>
        <vehicle id="1_1" eclass="HBEFA3/PC_G_EU4" CO2="2701.28" CO="156.49" HC="0.78" NOx="1.22" PMx="0.06" fuel="1.16" electricity="0.00" noise="60.55" route="routecenter" type="1" waiting="0.00" lane="center_1" pos="0.22" speed="0.57" angle="90.00" x="399.77" y="139.77"/>
        <vehicle id="1_2" eclass="HBEFA3/PC_G_EU4" CO2="2681.49" CO="157.38" HC="0.78" NOx="1.22" PMx="0.06" fuel="1.15" electricity="0.00" noise="60.20" route="routecenter" type="1" waiting="0.00" lane="center_0" pos="121.53" speed="0.49" angle="90.00" x="521.63" y="136.47"/>
        <vehicle id="1_3" eclass="HBEFA3/PC_G_EU4" CO2="2698.61" CO="155.98" HC="0.77" NOx="1.22" PMx="0.06" fuel="1.16" electricity="0.00" noise="60.38" route="routecenter" type="1" waiting="0.00" lane="center_1" pos="123.95" speed="0.59" angle="90.00" x="524.05" y="139.77"/>
        <vehicle id="1_4" eclass="HBEFA3/PC_G_EU4" CO2="2705.60" CO="156.05" HC="0.77" NOx="1.23" PMx="0.06" fuel="1.16" electricity="0.00" noise="60.56" route="!1_4!var#1" type="1" waiting="0.00" lane="inflow_highway_0" pos="46.09" speed="0.60" angle="90.00" x="46.09" y="136.47"/>
        <vehicle id="2_0" eclass="HBEFA3/PC_G_EU4" CO2="2694.23" CO="157.13" HC="0.78" NOx="1.22" PMx="0.06" fuel="1.16" electricity="0.00" noise="60.51" route="routeinflow_highway" type="2" waiting="0.00" lane="inflow_highway_1" pos="49.18" speed="0.52" angle="90.00" x="49.18" y="139.77"/>
        <vehicle id="2_1" eclass="HBEFA3/PC_G_EU4" CO2="2705.62" CO="156.05" HC="0.77" NOx="1.23" PMx="0.06" fuel="1.16" electricity="0.00" noise="60.56" route="routeinflow_merge" type="2" waiting="0.00" lane="inflow_merge_0" pos="69.53" speed="0.60" angle="45.00" x="308.91" y="47.99"/>
        <vehicle id="2_2" eclass="HBEFA3/PC_G_EU4" CO2="2698.56" CO="156.77" HC="0.78" NOx="1.22" PMx="0.06" fuel="1.16" electricity="0.00" noise="60.55" route="routemerge" type="2" waiting="0.00" lane="merge_0" pos="90.97" speed="0.55" angle="45.00" x="387.89" y="126.98"/>
        <vehicle id="2_3" eclass="HBEFA3/PC_G_EU4" CO2="2665.80" CO="156.78" HC="0.78" NOx="1.21" PMx="0.06" fuel="1.15" electricity="0.00" noise="59.62" route="routediverge" type="2" waiting="0.00" lane="diverge_0" pos="96.53" speed="0.51" angle="135.00" x="671.01" y="68.07"/>
        <vehicle id="2_4" eclass="HBEFA3/PC_G_EU4" CO2="2694.47" CO="156.77" HC="0.78" NOx="1.22" PMx="0.06" fuel="1.16" electricity="0.00" noise="60.44" route="routeright" type="2" waiting="0.00" lane="right_0" pos="21.68" speed="0.54" angle="90.00" x="629.23" y="136.47"/>
        <vehicle id="3_0" eclass="HBEFA3/PC_G_EU4" CO2="2701.83" CO="156.43" HC="0.78" NOx="1.23" PMx="0.06" fuel="1.16" electricity="0.00" noise="60.55" route="routeright" type="3" waiting="0.00" lane="right_1" pos="16.78" speed="0.57" angle="90.00" x="624.43" y="139.77"/>
        <vehicle id="3_1" eclass="HBEFA3/PC_G_EU4" CO2="2669.96" CO="156.79" HC="0.78" NOx="1.21" PMx="0.06" fuel="1.15" electricity="0.00" noise="59.75" route="routeright" type="3" waiting="0.00" lane="right_0" pos="137.74" speed="0.51" angle="90.00" x="742.97" y="136.47"/>
        <vehicle id="3_2" eclass="HBEFA3/PC_G_EU4" CO2="2689.41" CO="155.97" HC="0.77" NOx="1.22" PMx="0.06" fuel="1.16" electricity="0.00" noise="60.15" route="routeright" type="3" waiting="0.00" lane="right_1" pos="150.48" speed="0.58" angle="90.00" x="755.45" y="139.77"/>
        <vehicle id="3_3" eclass="HBEFA3/PC_G_EU4" CO2="2701.32" CO="156.49" HC="0.78" NOx="1.22" PMx="0.06" fuel="1.16" electricity="0.00" noise="60.55" route="routeright" type="3" waiting="0.00" lane="right_0" pos="257.62" speed="0.57" angle="90.00" x="860.46" y="136.47"/>
        <vehicle id="3_4" eclass="HBEFA3/PC_G_EU4" CO2="2675.43" CO="156.16" HC="0.77" NOx="1.21" PMx="0.06" fuel="1.15" electricity="0.00" noise="59.81" route="routeright" type="3" waiting="0.00" lane="right_1" pos="254.00" speed="0.55" angle="90.00" x="856.92" y="139.77"/>
        <vehicle id="4_0" eclass="HBEFA3/PC_G_EU4" CO2="2700.94" CO="156.52" HC="0.78" NOx="1.22" PMx="0.06" fuel="1.16" electricity="0.00" noise="60.55" route="routeright" type="4" waiting="0.00" lane="right_0" pos="383.96" speed="0.56" angle="90.00" x="984.28" y="136.47"/>
        <vehicle id="4_1" eclass="HBEFA3/PC_G_EU4" CO2="2666.86" CO="156.21" HC="0.77" NOx="1.21" PMx="0.06" fuel="1.15" electricity="0.00" noise="59.58" route="routeright" type="4" waiting="0.00" lane="right_1" pos="382.10" speed="0.54" angle="90.00" x="982.46" y="139.77"/>
        <vehicle id="4_2" eclass="HBEFA3/PC_G_EU4" CO2="2694.23" CO="156.60" HC="0.78" NOx="1.22" PMx="0.06" fuel="1.16" electricity="0.00" noise="60.39" route="routeleft" type="4" waiting="0.00" lane="left_0" pos="94.24" speed="0.55" angle="90.00" x="191.74" y="136.47"/>
        <vehicle id="4_3" eclass="HBEFA3/PC_G_EU4" CO2="2702.57" CO="156.36" HC="0.78" NOx="1.23" PMx="0.06" fuel="1.16" electricity="0.00" noise="60.56" route="routeleft" type="4" waiting="0.00" lane="left_1" pos="103.96" speed="0.57" angle="90.00" x="201.20" y="139.77"/>
        <vehicle id="4_4" eclass="HBEFA3/PC_G_EU4" CO2="2687.53" CO="156.73" HC="0.78" NOx="1.22" PMx="0.06" fuel="1.16" electricity="0.00" noise="60.24" route="routeleft" type="4" waiting="0.00" lane="left_0" pos="218.16" speed="0.54" angle="90.00" x="312.35" y="136.47"/>
    </timestep>
    <timestep time="1.00">
        <vehicle id="1_0" eclass="HBEFA3/PC_G_EU4" CO2="2722.08" CO="153.09" HC="0.76" NOx="1.23" PMx="0.06" fuel="1.17" electricity="0.00" noise="60.41" route="routecenter" type="1" waiting="0.00" lane="center_0" pos="11.52" speed="0.79" angle="90.00" x="411.12" y="136.47"/>