<?xml version="1.0" encoding="UTF-8"?>

<!-- generated on Mon Nov 19 20:33:24 2018 by SUMO gui Version b'v0_31_0-812-g1d4338ab80'
<?xml version="1.0" encoding="UTF-8"?>

<configuration xmlns:xsi="http://www.w3.org/2001/XMLSchema-instance" xsi:noNamespaceSchemaLocation="http://sumo.dlr.de/xsd/sumoConfiguration.xsd">

    <input>
        <net-file value="/Users/barryfan/flow/flow/scenarios/debug/cfg/merge-baseline_20181119-2033231542688403.810013.net.xml"/>
        <route-files value="/Users/barryfan/flow/flow/scenarios/debug/cfg/merge-baseline_20181119-2033231542688403.810013.rou.xml"/>
        <additional-files value="/Users/barryfan/flow/flow/scenarios/debug/cfg/merge-baseline_20181119-2033231542688403.810013.add.xml"/>
    </input>

    <output>
        <emission-output value="./data/merge-baseline_20181119-2033231542688403.810013-emission.xml"/>
    </output>

    <time>
        <begin value="0"/>
        <step-length value="0.2"/>
    </time>

    <processing>
        <time-to-teleport value="-1"/>
    </processing>

    <report>
        <no-step-log value="true"/>
    </report>

    <traci_server>
        <remote-port value="63263"/>
    </traci_server>

    <gui_only>
        <gui-settings-file value="/Users/barryfan/flow/flow/scenarios/debug/cfg/merge-baseline_20181119-2033231542688403.810013.gui.cfg"/>
        <tracker-interval value="0.2"/>
    </gui_only>

</configuration>
-->

<emission-export xmlns:xsi="http://www.w3.org/2001/XMLSchema-instance" xsi:noNamespaceSchemaLocation="http://sumo.dlr.de/xsd/emission_file.xsd">
    <timestep time="0.00">
        <vehicle id="1_0" eclass="HBEFA3/PC_G_EU4" CO2="2624.72" CO="164.78" HC="0.81" NOx="1.20" PMx="0.07" fuel="1.13" electricity="0.00" noise="55.94" route="routeinflow_highway" type="1" waiting="0.00" lane="inflow_highway_0" pos="1.47" speed="0.00" angle="90.00" x="1.47" y="136.47"/>
        <vehicle id="1_1" eclass="HBEFA3/PC_G_EU4" CO2="2624.72" CO="164.78" HC="0.81" NOx="1.20" PMx="0.07" fuel="1.13" electricity="0.00" noise="55.94" route="routeinflow_highway" type="1" waiting="0.00" lane="inflow_highway_1" pos="5.74" speed="0.00" angle="90.00" x="5.74" y="139.77"/>
        <vehicle id="1_2" eclass="HBEFA3/PC_G_EU4" CO2="2624.72" CO="164.78" HC="0.81" NOx="1.20" PMx="0.07" fuel="1.13" electricity="0.00" noise="55.94" route="routemerge" type="1" waiting="0.00" lane="merge_0" pos="32.15" speed="0.00" angle="45.00" x="350.76" y="89.84"/>
        <vehicle id="1_3" eclass="HBEFA3/PC_G_EU4" CO2="2624.72" CO="164.78" HC="0.81" NOx="1.20" PMx="0.07" fuel="1.13" electricity="0.00" noise="55.94" route="routeright" type="1" waiting="0.00" lane="right_0" pos="45.77" speed="0.00" angle="90.00" x="652.83" y="136.47"/>
        <vehicle id="1_4" eclass="HBEFA3/PC_G_EU4" CO2="2624.72" CO="164.78" HC="0.81" NOx="1.20" PMx="0.07" fuel="1.13" electricity="0.00" noise="55.94" route="routeright" type="1" waiting="0.00" lane="right_1" pos="32.95" speed="0.00" angle="90.00" x="640.27" y="139.77"/>
        <vehicle id="2_0" eclass="HBEFA3/PC_G_EU4" CO2="2624.72" CO="164.78" HC="0.81" NOx="1.20" PMx="0.07" fuel="1.13" electricity="0.00" noise="55.94" route="routeright" type="2" waiting="0.00" lane="right_0" pos="168.08" speed="0.00" angle="90.00" x="772.71" y="136.47"/>
        <vehicle id="2_1" eclass="HBEFA3/PC_G_EU4" CO2="2624.72" CO="164.78" HC="0.81" NOx="1.20" PMx="0.07" fuel="1.13" electricity="0.00" noise="55.94" route="routeright" type="2" waiting="0.00" lane="right_1" pos="174.01" speed="0.00" angle="90.00" x="778.52" y="139.77"/>
        <vehicle id="2_2" eclass="HBEFA3/PC_G_EU4" CO2="2624.72" CO="164.78" HC="0.81" NOx="1.20" PMx="0.07" fuel="1.13" electricity="0.00" noise="55.94" route="routeright" type="2" waiting="0.00" lane="right_0" pos="284.06" speed="0.00" angle="90.00" x="886.37" y="136.47"/>
        <vehicle id="2_3" eclass="HBEFA3/PC_G_EU4" CO2="2624.72" CO="164.78" HC="0.81" NOx="1.20" PMx="0.07" fuel="1.13" electricity="0.00" noise="55.94" route="routeright" type="2" waiting="0.00" lane="right_1" pos="277.95" speed="0.00" angle="90.00" x="880.38" y="139.77"/>
        <vehicle id="2_4" eclass="HBEFA3/PC_G_EU4" CO2="2624.72" CO="164.78" HC="0.81" NOx="1.20" PMx="0.07" fuel="1.13" electricity="0.00" noise="55.94" route="routecenter" type="2" waiting="0.00" lane="center_0" pos="3.64" speed="0.00" angle="88.21" x="403.21" y="136.47"/>
        <vehicle id="3_0" eclass="HBEFA3/PC_G_EU4" CO2="2624.72" CO="164.78" HC="0.81" NOx="1.20" PMx="0.07" fuel="1.13" electricity="0.00" noise="55.94" route="routecenter" type="3" waiting="0.00" lane="center_1" pos="5.35" speed="0.00" angle="90.00" x="404.92" y="139.77"/>
        <vehicle id="3_1" eclass="HBEFA3/PC_G_EU4" CO2="2624.72" CO="164.78" HC="0.81" NOx="1.20" PMx="0.07" fuel="1.13" electricity="0.00" noise="55.94" route="routecenter" type="3" waiting="0.00" lane="center_0" pos="132.55" speed="0.00" angle="90.00" x="532.70" y="136.47"/>
        <vehicle id="3_2" eclass="HBEFA3/PC_G_EU4" CO2="2624.72" CO="164.78" HC="0.81" NOx="1.20" PMx="0.07" fuel="1.13" electricity="0.00" noise="55.94" route="routecenter" type="3" waiting="0.00" lane="center_1" pos="130.70" speed="0.00" angle="90.00" x="530.84" y="139.77"/>
        <vehicle id="3_3" eclass="HBEFA3/PC_G_EU4" CO2="2624.72" CO="164.78" HC="0.81" NOx="1.20" PMx="0.07" fuel="1.13" electricity="0.00" noise="55.94" route="routeleft" type="3" waiting="0.00" lane="left_0" pos="43.97" speed="0.00" angle="90.00" x="142.80" y="136.47"/>
        <vehicle id="3_4" eclass="HBEFA3/PC_G_EU4" CO2="2624.72" CO="164.78" HC="0.81" NOx="1.20" PMx="0.07" fuel="1.13" electricity="0.00" noise="55.94" route="routeleft" type="3" waiting="0.00" lane="left_1" pos="53.02" speed="0.00" angle="90.00" x="151.61" y="139.77"/>
        <vehicle id="4_0" eclass="HBEFA3/PC_G_EU4" CO2="2624.72" CO="164.78" HC="0.81" NOx="1.20" PMx="0.07" fuel="1.13" electricity="0.00" noise="55.94" route="routeleft" type="4" waiting="0.00" lane="left_0" pos="160.50" speed="0.00" angle="90.00" x="256.23" y="136.47"/>
        <vehicle id="4_1" eclass="HBEFA3/PC_G_EU4" CO2="2624.72" CO="164.78" HC="0.81" NOx="1.20" PMx="0.07" fuel="1.13" electricity="0.00" noise="55.94" route="routeleft" type="4" waiting="0.00" lane="left_1" pos="166.70" speed="0.00" angle="90.00" x="262.27" y="139.77"/>
        <vehicle id="4_2" eclass="HBEFA3/PC_G_EU4" CO2="2624.72" CO="164.78" HC="0.81" NOx="1.20" PMx="0.07" fuel="1.13" electricity="0.00" noise="55.94" route="routeleft" type="4" waiting="0.00" lane="left_0" pos="277.78" speed="0.00" angle="90.00" x="370.39" y="136.47"/>
        <vehicle id="4_3" eclass="HBEFA3/PC_G_EU4" CO2="2624.72" CO="164.78" HC="0.81" NOx="1.20" PMx="0.07" fuel="1.13" electricity="0.00" noise="55.94" route="routeleft" type="4" waiting="0.00" lane="left_1" pos="280.02" speed="0.00" angle="90.00" x="372.57" y="139.77"/>
        <vehicle id="4_4" eclass="HBEFA3/PC_G_EU4" CO2="2624.72" CO="164.78" HC="0.81" NOx="1.20" PMx="0.07" fuel="1.13" electricity="0.00" noise="55.94" route="routediverge" type="4" waiting="0.00" lane="diverge_0" pos="102.80" speed="0.00" angle="135.00" x="675.21" y="63.88"/>
    </timestep>
    <timestep time="0.20">
        <vehicle id="1_0" eclass="HBEFA3/PC_G_EU4" CO2="2624.72" CO="164.78" HC="0.81" NOx="1.20" PMx="0.07" fuel="1.13" electricity="0.00" noise="55.94" route="routeinflow_highway" type="1" waiting="0.00" lane="inflow_highway_0" pos="1.47" speed="0.00" angle="90.00" x="1.47" y="136.47"/>
        <vehicle id="1_1" eclass="HBEFA3/PC_G_EU4" CO2="2624.72" CO="164.78" HC="0.81" NOx="1.20" PMx="0.07" fuel="1.13" electricity="0.00" noise="55.94" route="routeinflow_highway" type="1" waiting="0.00" lane="inflow_highway_1" pos="5.74" speed="0.00" angle="90.00" x="5.74" y="139.77"/>
        <vehicle id="1_2" eclass="HBEFA3/PC_G_EU4" CO2="2624.72" CO="164.78" HC="0.81" NOx="1.20" PMx="0.07" fuel="1.13" electricity="0.00" noise="55.94" route="routemerge" type="1" waiting="0.00" lane="merge_0" pos="32.15" speed="0.00" angle="45.00" x="350.76" y="89.84"/>
        <vehicle id="1_3" eclass="HBEFA3/PC_G_EU4" CO2="2624.72" CO="164.78" HC="0.81" NOx="1.20" PMx="0.07" fuel="1.13" electricity="0.00" noise="55.94" route="routeright" type="1" waiting="0.00" lane="right_0" pos="45.77" speed="0.00" angle="90.00" x="652.83" y="136.47"/>
        <vehicle id="1_4" eclass="HBEFA3/PC_G_EU4" CO2="2624.72" CO="164.78" HC="0.81" NOx="1.20" PMx="0.07" fuel="1.13" electricity="0.00" noise="55.94" route="routeright" type="1" waiting="0.00" lane="right_1" pos="32.95" speed="0.00" angle="90.00" x="640.27" y="139.77"/>
        <vehicle id="2_0" eclass="HBEFA3/PC_G_EU4" CO2="2624.72" CO="164.78" HC="0.81" NOx="1.20" PMx="0.07" fuel="1.13" electricity="0.00" noise="55.94" route="routeright" type="2" waiting="0.00" lane="right_0" pos="168.08" speed="0.00" angle="90.00" x="772.71" y="136.47"/>
        <vehicle id="2_1" eclass="HBEFA3/PC_G_EU4" CO2="2624.72" CO="164.78" HC="0.81" NOx="1.20" PMx="0.07" fuel="1.13" electricity="0.00" noise="55.94" route="routeright" type="2" waiting="0.00" lane="right_1" pos="174.01" speed="0.00" angle="90.00" x="778.52" y="139.77"/>
        <vehicle id="2_2" eclass="HBEFA3/PC_G_EU4" CO2="2624.72" CO="164.78" HC="0.81" NOx="1.20" PMx="0.07" fuel="1.13" electricity="0.00" noise="55.94" route="routeright" type="2" waiting="0.00" lane="right_0" pos="284.06" speed="0.00" angle="90.00" x="886.37" y="136.47"/>
        <vehicle id="2_3" eclass="HBEFA3/PC_G_EU4" CO2="2624.72" CO="164.78" HC="0.81" NOx="1.20" PMx="0.07" fuel="1.13" electricity="0.00" noise="55.94" route="routeright" type="2" waiting="0.00" lane="right_1" pos="277.95" speed="0.00" angle="90.00" x="880.38" y="139.77"/>
        <vehicle id="2_4" eclass="HBEFA3/PC_G_EU4" CO2="2624.72" CO="164.78" HC="0.81" NOx="1.20" PMx="0.07" fuel="1.13" electricity="0.00" noise="55.94" route="routecenter" type="2" waiting="0.00" lane="center_0" pos="3.64" speed="0.00" angle="88.21" x="403.21" y="136.47"/>
        <vehicle id="3_0" eclass="HBEFA3/PC_G_EU4" CO2="2624.72" CO="164.78" HC="0.81" NOx="1.20" PMx="0.07" fuel="1.13" electricity="0.00" noise="55.94" route="routecenter" type="3" waiting="0.00" lane="center_1" pos="5.35" speed="0.00" angle="90.00" x="404.92" y="139.77"/>
        <vehicle id="3_1" eclass="HBEFA3/PC_G_EU4" CO2="2624.72" CO="164.78" HC="0.81" NOx="1.20" PMx="0.07" fuel="1.13" electricity="0.00" noise="55.94" route="routecenter" type="3" waiting="0.00" lane="center_0" pos="132.55" speed="0.00" angle="90.00" x="532.70" y="136.47"/>
        <vehicle id="3_2" eclass="HBEFA3/PC_G_EU4" CO2="2624.72" CO="164.78" HC="0.81" NOx="1.20" PMx="0.07" fuel="1.13" electricity="0.00" noise="55.94" route="routecenter" type="3" waiting="0.00" lane="center_1" pos="130.70" speed="0.00" angle="90.00" x="530.84" y="139.77"/>
        <vehicle id="3_3" eclass="HBEFA3/PC_G_EU4" CO2="2624.72" CO="164.78" HC="0.81" NOx="1.20" PMx="0.07" fuel="1.13" electricity="0.00" noise="55.94" route="routeleft" type="3" waiting="0.00" lane="left_0" pos="43.97" speed="0.00" angle="90.00" x="142.80" y="136.47"/>
        <vehicle id="3_4" eclass="HBEFA3/PC_G_EU4" CO2="2624.72" CO="164.78" HC="0.81" NOx="1.20" PMx="0.07" fuel="1.13" electricity="0.00" noise="55.94" route="routeleft" type="3" waiting="0.00" lane="left_1" pos="53.02" speed="0.00" angle="90.00" x="151.61" y="139.77"/>
        <vehicle id="4_0" eclass="HBEFA3/PC_G_EU4" CO2="2624.72" CO="164.78" HC="0.81" NOx="1.20" PMx="0.07" fuel="1.13" electricity="0.00" noise="55.94" route="routeleft" type="4" waiting="0.00" lane="left_0" pos="160.50" speed="0.00" angle="90.00" x="256.23" y="136.47"/>
        <vehicle id="4_1" eclass="HBEFA3/PC_G_EU4" CO2="2624.72" CO="164.78" HC="0.81" NOx="1.20" PMx="0.07" fuel="1.13" electricity="0.00" noise="55.94" route="routeleft" type="4" waiting="0.00" lane="left_1" pos="166.70" speed="0.00" angle="90.00" x="262.27" y="139.77"/>
        <vehicle id="4_2" eclass="HBEFA3/PC_G_EU4" CO2="2624.72" CO="164.78" HC="0.81" NOx="1.20" PMx="0.07" fuel="1.13" electricity="0.00" noise="55.94" route="routeleft" type="4" waiting="0.00" lane="left_0" pos="277.78" speed="0.00" angle="90.00" x="370.39" y="136.47"/>
        <vehicle id="4_3" eclass="HBEFA3/PC_G_EU4" CO2="2624.72" CO="164.78" HC="0.81" NOx="1.20" PMx="0.07" fuel="1.13" electricity="0.00" noise="55.94" route="routeleft" type="4" waiting="0.00" lane="left_1" pos="280.02" speed="0.00" angle="90.00" x="372.57" y="139.77"/>
        <vehicle id="4_4" eclass="HBEFA3/PC_G_EU4" CO2="2624.72" CO="164.78" HC="0.81" NOx="1.20" PMx="0.07" fuel="1.13" electricity="0.00" noise="55.94" route="routediverge" type="4" waiting="0.00" lane="diverge_0" pos="102.80" speed="0.00" angle="135.00" x="675.21" y="63.88"/>
    </timestep>
    <timestep time="0.40">
        <vehicle id="1_0" eclass="HBEFA3/PC_G_EU4" CO2="2651.22" CO="161.80" HC="0.80" NOx="1.21" PMx="0.07" fuel="1.14" electricity="0.00" noise="60.41" route="!1_0!var#1" type="1" waiting="0.00" lane="inflow_highway_0" pos="1.51" speed="0.20" angle="90.00" x="1.51" y="136.47"/>
        <vehicle id="1_1" eclass="HBEFA3/PC_G_EU4" CO2="2630.38" CO="162.57" HC="0.80" NOx="1.20" PMx="0.07" fuel="1.13" electricity="0.00" noise="58.89" route="!1_1!var#1" type="1" waiting="0.00" lane="inflow_highway_1" pos="5.77" speed="0.13" angle="90.00" x="5.77" y="139.77"/>
        <vehicle id="1_2" eclass="HBEFA3/PC_G_EU4" CO2="2651.22" CO="161.80" HC="0.80" NOx="1.21" PMx="0.07" fuel="1.14" electricity="0.00" noise="60.41" route="routemerge" type="1" waiting="0.00" lane="merge_0" pos="32.19" speed="0.20" angle="45.00" x="350.78" y="89.87"/>
        <vehicle id="1_3" eclass="HBEFA3/PC_G_EU4" CO2="2648.15" CO="161.88" HC="0.80" NOx="1.21" PMx="0.07" fuel="1.14" electricity="0.00" noise="60.24" route="routeright" type="1" waiting="0.00" lane="right_0" pos="45.80" speed="0.19" angle="90.00" x="652.87" y="136.47"/>
        <vehicle id="1_4" eclass="HBEFA3/PC_G_EU4" CO2="2651.22" CO="161.80" HC="0.80" NOx="1.21" PMx="0.07" fuel="1.14" electricity="0.00" noise="60.41" route="routeright" type="1" waiting="0.00" lane="right_1" pos="32.99" speed="0.20" angle="90.00" x="640.31" y="139.77"/>
        <vehicle id="2_0" eclass="HBEFA3/PC_G_EU4" CO2="2651.22" CO="161.80" HC="0.80" NOx="1.21" PMx="0.07" fuel="1.14" electricity="0.00" noise="60.41" route="routeright" type="2" waiting="0.00" lane="right_0" pos="168.12" speed="0.20" angle="90.00" x="772.75" y="136.47"/>
        <vehicle id="2_1" eclass="HBEFA3/PC_G_EU4" CO2="2651.22" CO="161.80" HC="0.80" NOx="1.21" PMx="0.07" fuel="1.14" electricity="0.00" noise="60.41" route="routeright" type="2" waiting="0.00" lane="right_1" pos="174.05" speed="0.20" angle="90.00" x="778.56" y="139.77"/>
        <vehicle id="2_2" eclass="HBEFA3/PC_G_EU4" CO2="2638.96" CO="162.17" HC="0.80" NOx="1.21" PMx="0.07" fuel="1.13" electricity="0.00" noise="59.63" route="routeright" type="2" waiting="0.00" lane="right_0" pos="284.09" speed="0.16" angle="90.00" x="886.40" y="136.47"/>
        <vehicle id="2_3" eclass="HBEFA3/PC_G_EU4" CO2="2636.84" CO="162.25" HC="0.80" NOx="1.21" PMx="0.07" fuel="1.13" electricity="0.00" noise="59.47" route="routeright" type="2" waiting="0.00" lane="right_1" pos="277.98" speed="0.16" angle="90.00" x="880.41" y="139.77"/>
        <vehicle id="2_4" eclass="HBEFA3/PC_G_EU4" CO2="2638.03" CO="162.20" HC="0.80" NOx="1.21" PMx="0.07" fuel="1.13" electricity="0.00" noise="59.56" route="routecenter" type="2" waiting="0.00" lane="center_0" pos="3.68" speed="0.16" angle="88.25" x="403.24" y="136.47"/>
        <vehicle id="3_0" eclass="HBEFA3/PC_G_EU4" CO2="2643.23" CO="162.02" HC="0.80" NOx="1.21" PMx="0.07" fuel="1.14" electricity="0.00" noise="59.93" route="routecenter" type="3" waiting="0.00" lane="center_1" pos="5.38" speed="0.18" angle="90.00" x="404.96" y="139.77"/>
        <vehicle id="3_1" eclass="HBEFA3/PC_G_EU4" CO2="2635.02" CO="162.33" HC="0.80" NOx="1.21" PMx="0.07" fuel="1.13" electricity="0.00" noise="59.32" route="routecenter" type="3" waiting="0.00" lane="center_0" pos="132.58" speed="0.15" angle="90.00" x="532.73" y="136.47"/>
        <vehicle id="3_2" eclass="HBEFA3/PC_G_EU4" CO2="2651.22" CO="161.80" HC="0.80" NOx="1.21" PMx="0.07" fuel="1.14" electricity="0.00" noise="60.41" route="routecenter" type="3" waiting="0.00" lane="center_1" pos="130.74" speed="0.20" angle="90.00" x="530.88" y="139.77"/>
        <vehicle id="3_3" eclass="HBEFA3/PC_G_EU4" CO2="2634.64" CO="162.35" HC="0.80" NOx="1.20" PMx="0.07" fuel="1.13" electricity="0.00" noise="59.29" route="routeleft" type="3" waiting="0.00" lane="left_0" pos="44.00" speed="0.15" angle="90.00" x="142.83" y="136.47"/>
        <vehicle id="3_4" eclass="HBEFA3/PC_G_EU4" CO2="2651.00" CO="161.81" HC="0.80" NOx="1.21" PMx="0.07" fuel="1.14" electricity="0.00" noise="60.40" route="routeleft" type="3" waiting="0.00" lane="left_1" pos="53.06" speed="0.20" angle="90.00" x="151.65" y="139.77"/>
        <vehicle id="4_0" eclass="HBEFA3/PC_G_EU4" CO2="2643.32" CO="162.02" HC="0.80" NOx="1.21" PMx="0.07" fuel="1.14" electricity="0.00" noise="59.93" route="routeleft" type="4" waiting="0.00" lane="left_0" pos="160.54" speed="0.18" angle="90.00" x="256.27" y="136.47"/>
        <vehicle id="4_1" eclass="HBEFA3/PC_G_EU4" CO2="2651.22" CO="161.80" HC="0.80" NOx="1.21" PMx="0.07" fuel="1.14" electricity="0.00" noise="60.41" route="routeleft" type="4" waiting="0.00" lane="left_1" pos="166.74" speed="0.20" angle="90.00" x="262.31" y="139.77"/>
        <vehicle id="4_2" eclass="HBEFA3/PC_G_EU4" CO2="2651.22" CO="161.80" HC="0.80" NOx="1.21" PMx="0.07" fuel="1.14" electricity="0.00" noise="60.41" route="routeleft" type="4" waiting="0.00" lane="left_0" pos="277.82" speed="0.20" angle="90.00" x="370.43" y="136.47"/>
        <vehicle id="4_3" eclass="HBEFA3/PC_G_EU4" CO2="2651.22" CO="161.80" HC="0.80" NOx="1.21" PMx="0.07" fuel="1.14" electricity="0.00" noise="60.41" route="routeleft" type="4" waiting="0.00" lane="left_1" pos="280.06" speed="0.20" angle="90.00" x="372.61" y="139.77"/>
        <vehicle id="4_4" eclass="HBEFA3/PC_G_EU4" CO2="2651.22" CO="161.80" HC="0.80" NOx="1.21" PMx="0.07" fuel="1.14" electricity="0.00" noise="60.41" route="routediverge" type="4" waiting="0.00" lane="diverge_0" pos="102.84" speed="0.20" angle="135.00" x="675.23" y="63.85"/>
    </timestep>
    <timestep time="0.60">
        <vehicle id="1_0" eclass="HBEFA3/PC_G_EU4" CO2="2678.34" CO="158.88" HC="0.79" NOx="1.22" PMx="0.07" fuel="1.15" electricity="0.00" noise="60.49" route="!1_0!var#1" type="1" waiting="0.00" lane="inflow_highway_0" pos="1.59" speed="0.40" angle="90.00" x="1.59" y="136.47"/>
        <vehicle id="1_1" eclass="HBEFA3/PC_G_EU4" CO2="2669.02" CO="159.87" HC="0.79" NOx="1.22" PMx="0.07" fuel="1.15" electricity="0.00" noise="60.46" route="!1_1!var#1" type="1" waiting="0.00" lane="inflow_highway_1" pos="5.84" speed="0.33" angle="90.00" x="5.84" y="139.77"/>
        <vehicle id="1_2" eclass="HBEFA3/PC_G_EU4" CO2="2678.34" CO="158.88" HC="0.79" NOx="1.22" PMx="0.07" fuel="1.15" electricity="0.00" noise="60.49" route="routemerge" type="1" waiting="0.00" lane="merge_0" pos="32.27" speed="0.40" angle="45.00" x="350.83" y="89.92"/>
        <vehicle id="1_3" eclass="HBEFA3/PC_G_EU4" CO2="2624.27" CO="159.70" HC="0.79" NOx="1.20" PMx="0.06" fuel="1.13" electricity="0.00" noise="58.17" route="routeright" type="1" waiting="0.00" lane="right_0" pos="45.86" speed="0.29" angle="90.00" x="652.93" y="136.47"/>
        <vehicle id="1_4" eclass="HBEFA3/PC_G_EU4" CO2="2678.34" CO="158.88" HC="0.79" NOx="1.22" PMx="0.07" fuel="1.15" electricity="0.00" noise="60.49" route="routeright" type="1" waiting="0.00" lane="right_1" pos="33.07" speed="0.40" angle="90.00" x="640.39" y="139.77"/>
        <vehicle id="2_0" eclass="HBEFA3/PC_G_EU4" CO2="2675.15" CO="158.90" HC="0.79" NOx="1.22" PMx="0.07" fuel="1.15" electricity="0.00" noise="60.38" route="routeright" type="2" waiting="0.00" lane="right_0" pos="168.20" speed="0.40" angle="90.00" x="772.83" y="136.47"/>
        <vehicle id="2_1" eclass="HBEFA3/PC_G_EU4" CO2="2667.31" CO="158.95" HC="0.79" NOx="1.21" PMx="0.06" fuel="1.15" electricity="0.00" noise="60.10" route="routeright" type="2" waiting="0.00" lane="right_1" pos="174.12" speed="0.38" angle="90.00" x="778.63" y="139.77"/>
        <vehicle id="2_2" eclass="HBEFA3/PC_G_EU4" CO2="2663.96" CO="159.47" HC="0.79" NOx="1.21" PMx="0.07" fuel="1.15" electricity="0.00" noise="60.11" route="routeright" type="2" waiting="0.00" lane="right_0" pos="284.16" speed="0.35" angle="90.00" x="886.47" y="136.47"/>
        <vehicle id="2_3" eclass="HBEFA3/PC_G_EU4" CO2="2667.52" CO="159.54" HC="0.79" NOx="1.21" PMx="0.07" fuel="1.15" electricity="0.00" noise="60.28" route="routeright" type="2" waiting="0.00" lane="right_1" pos="278.05" speed="0.35" angle="90.00" x="880.48" y="139.77"/>
        <vehicle id="2_4" eclass="HBEFA3/PC_G_EU4" CO2="2651.71" CO="159.66" HC="0.79" NOx="1.21" PMx="0.06" fuel="1.14" electricity="0.00" noise="59.62" route="routecenter" type="2" waiting="0.00" lane="center_0" pos="3.74" speed="0.32" angle="88.34" x="403.31" y="136.47"/>
        <vehicle id="3_0" eclass="HBEFA3/PC_G_EU4" CO2="2675.35" CO="159.20" HC="0.79" NOx="1.22" PMx="0.07" fuel="1.15" electricity="0.00" noise="60.48" route="routecenter" type="3" waiting="0.00" lane="center_1" pos="5.46" speed="0.38" angle="90.00" x="405.03" y="139.77"/>
        <vehicle id="3_1" eclass="HBEFA3/PC_G_EU4" CO2="2638.49" CO="160.04" HC="0.79" NOx="1.20" PMx="0.06" fuel="1.13" electricity="0.00" noise="59.01" route="routecenter" type="3" waiting="0.00" lane="center_0" pos="132.64" speed="0.29" angle="90.00" x="532.79" y="136.47"/>
        <vehicle id="3_2" eclass="HBEFA3/PC_G_EU4" CO2="2666.10" CO="158.96" HC="0.79" NOx="1.21" PMx="0.06" fuel="1.15" electricity="0.00" noise="60.06" route="routecenter" type="3" waiting="0.00" lane="center_1" pos="130.81" speed="0.38" angle="90.00" x="530.95" y="139.77"/>
        <vehicle id="3_3" eclass="HBEFA3/PC_G_EU4" CO2="2667.46" CO="159.65" HC="0.79" NOx="1.22" PMx="0.07" fuel="1.15" electricity="0.00" noise="60.32" route="routeleft" type="3" waiting="0.00" lane="left_0" pos="44.07" speed="0.34" angle="90.00" x="142.90" y="136.47"/>
        <vehicle id="3_4" eclass="HBEFA3/PC_G_EU4" CO2="2678.27" CO="158.89" HC="0.79" NOx="1.22" PMx="0.07" fuel="1.15" electricity="0.00" noise="60.49" route="routeleft" type="3" waiting="0.00" lane="left_1" pos="53.14" speed="0.40" angle="90.00" x="151.73" y="139.77"/>
        <vehicle id="4_0" eclass="HBEFA3/PC_G_EU4" CO2="2670.94" CO="159.22" HC="0.79" NOx="1.22" PMx="0.07" fuel="1.15" electricity="0.00" noise="60.32" route="routeleft" type="4" waiting="0.00" lane="left_0" pos="160.61" speed="0.37" angle="90.00" x="256.34" y="136.47"/>
        <vehicle id="4_1" eclass="HBEFA3/PC_G_EU4" CO2="2678.34" CO="158.88" HC="0.79" NOx="1.22" PMx="0.07" fuel="1.15" electricity="0.00" noise="60.49" route="routeleft" type="4" waiting="0.00" lane="left_1" pos="166.82" speed="0.40" angle="90.00" x="262.38" y="139.77"/>
        <vehicle id="4_2" eclass="HBEFA3/PC_G_EU4" CO2="2649.74" CO="159.12" HC="0.79" NOx="1.21" PMx="0.06" fuel="1.14" electricity="0.00" noise="59.42" route="routeleft" type="4" waiting="0.00" lane="left_0" pos="277.89" speed="0.35" angle="90.00" x="370.50" y="136.47"/>
        <vehicle id="4_3" eclass="HBEFA3/PC_G_EU4" CO2="2643.39" CO="159.21" HC="0.79" NOx="1.20" PMx="0.06" fuel="1.14" electricity="0.00" noise="59.14" route="routeleft" type="4" waiting="0.00" lane="left_1" pos="280.13" speed="0.34" angle="90.00" x="372.67" y="139.77"/>
        <vehicle id="4_4" eclass="HBEFA3/PC_G_EU4" CO2="2678.34" CO="158.88" HC="0.79" NOx="1.22" PMx="0.07" fuel="1.15" electricity="0.00" noise="60.49" route="routediverge" type="4" waiting="0.00" lane="diverge_0" pos="102.92" speed="0.40" angle="135.00" x="675.29" y="63.80"/>
    </timestep>
    <timestep time="0.80">
        <vehicle id="1_0" eclass="HBEFA3/PC_G_EU4" CO2="2706.10" CO="156.00" HC="0.77" NOx="1.23" PMx="0.06" fuel="1.16" electricity="0.00" noise="60.57" route="!1_0!var#1" type="1" waiting="0.00" lane="inflow_highway_0" pos="1.71" speed="0.60" angle="90.00" x="1.71" y="136.47"/>
        <vehicle id="1_1" eclass="HBEFA3/PC_G_EU4" CO2="2641.12" CO="157.14" HC="0.78" NOx="1.20" PMx="0.06" fuel="1.14" electricity="0.00" noise="58.85" route="!1_1!var#1" type="1" waiting="0.00" lane="inflow_highway_1" pos="5.93" speed="0.46" angle="90.00" x="5.93" y="139.77"/>
        <vehicle id="1_2" eclass="HBEFA3/PC_G_EU4" CO2="2666.47" CO="155.97" HC="0.77" NOx="1.21" PMx="0.06" fuel="1.15" electricity="0.00" noise="59.54" route="routemerge" type="1" waiting="0.00" lane="merge_0" pos="32.38" speed="0.55" angle="45.00" x="350.90" y="89.99"/>
        <vehicle id="1_3" eclass="HBEFA3/PC_G_EU4" CO2="2690.56" CO="157.60" HC="0.78" NOx="1.22" PMx="0.06" fuel="1.16" electricity="0.00" noise="60.52" route="routeright" type="1" waiting="0.00" lane="right_0" pos="45.96" speed="0.49" angle="90.00" x="653.02" y="136.47"/>
        <vehicle id="1_4" eclass="HBEFA3/PC_G_EU4" CO2="2706.10" CO="156.00" HC="0.77" NOx="1.23" PMx="0.06" fuel="1.16" electricity="0.00" noise="60.57" route="routeright" type="1" waiting="0.00" lane="right_1" pos="33.19" speed="0.60" angle="90.00" x="640.50" y="139.77"/>
        <vehicle id="2_0" eclass="HBEFA3/PC_G_EU4" CO2="2683.08" CO="156.04" HC="0.77" NOx="1.22" PMx="0.06" fuel="1.15" electricity="0.00" noise="60.00" route="routeright" type="2" waiting="0.00" lane="right_0" pos="168.32" speed="0.57" angle="90.00" x="772.94" y="136.47"/>
        <vehicle id="2_1" eclass="HBEFA3/PC_G_EU4" CO2="2682.70" CO="156.23" HC="0.77" NOx="1.22" PMx="0.06" fuel="1.15" electricity="0.00" noise="60.02" route="routeright" type="2" waiting="0.00" lane="right_1" pos="174.24" speed="0.56" angle="90.00" x="778.74" y="139.77"/>
        <vehicle id="2_2" eclass="HBEFA3/PC_G_EU4" CO2="2698.91" CO="156.73" HC="0.78" NOx="1.22" PMx="0.06" fuel="1.16" electricity="0.00" noise="60.55" route="routeright" type="2" waiting="0.00" lane="right_0" pos="284.27" speed="0.55" angle="90.00" x="886.58" y="136.47"/>
        <vehicle id="2_3" eclass="HBEFA3/PC_G_EU4" CO2="2698.98" CO="156.73" HC="0.78" NOx="1.22" PMx="0.06" fuel="1.16" electricity="0.00" noise="60.55" route="routeright" type="2" waiting="0.00" lane="right_1" pos="278.16" speed="0.55" angle="90.00" x="880.59" y="139.77"/>
        <vehicle id="2_4" eclass="HBEFA3/PC_G_EU4" CO2="2683.69" CO="157.11" HC="0.78" NOx="1.22" PMx="0.06" fuel="1.15" electricity="0.00" noise="60.21" route="routecenter" type="2" waiting="0.00" lane="center_0" pos="3.84" speed="0.51" angle="88.47" x="403.41" y="136.47"/>
        <vehicle id="3_0" eclass="HBEFA3/PC_G_EU4" CO2="2632.23" CO="156.43" HC="0.77" NOx="1.19" PMx="0.06" fuel="1.13" electricity="0.00" noise="58.51" route="routecenter" type="3" waiting="0.00" lane="center_1" pos="5.56" speed="0.49" angle="90.00" x="405.13" y="139.77"/>
        <vehicle id="3_1" eclass="HBEFA3/PC_G_EU4" CO2="2646.57" CO="157.83" HC="0.78" NOx="1.20" PMx="0.06" fuel="1.14" electricity="0.00" noise="59.11" route="routecenter" type="3" waiting="0.00" lane="center_0" pos="132.72" speed="0.42" angle="90.00" x="532.87" y="136.47"/>
        <vehicle id="3_2" eclass="HBEFA3/PC_G_EU4" CO2="2677.95" CO="156.26" HC="0.77" NOx="1.21" PMx="0.06" fuel="1.15" electricity="0.00" noise="59.90" route="routecenter" type="3" waiting="0.00" lane="center_1" pos="130.92" speed="0.55" angle="90.00" x="531.06" y="139.77"/>
        <vehicle id="3_3" eclass="HBEFA3/PC_G_EU4" CO2="2660.53" CO="156.87" HC="0.78" NOx="1.21" PMx="0.06" fuel="1.14" electricity="0.00" noise="59.47" route="routeleft" type="3" waiting="0.00" lane="left_0" pos="44.17" speed="0.49" angle="90.00" x="143.00" y="136.47"/>
        <vehicle id="3_4" eclass="HBEFA3/PC_G_EU4" CO2="2688.56" CO="155.98" HC="0.77" NOx="1.22" PMx="0.06" fuel="1.16" electricity="0.00" noise="60.13" route="routeleft" type="3" waiting="0.00" lane="left_1" pos="53.26" speed="0.58" angle="90.00" x="151.84" y="139.77"/>
        <vehicle id="4_0" eclass="HBEFA3/PC_G_EU4" CO2="2702.07" CO="156.41" HC="0.78" NOx="1.23" PMx="0.06" fuel="1.16" electricity="0.00" noise="60.55" route="routeleft" type="4" waiting="0.00" lane="left_0" pos="160.72" speed="0.57" angle="90.00" x="256.45" y="136.47"/>
        <vehicle id="4_1" eclass="HBEFA3/PC_G_EU4" CO2="2706.10" CO="156.00" HC="0.77" NOx="1.23" PMx="0.06" fuel="1.16" electricity="0.00" noise="60.57" route="routeleft" type="4" waiting="0.00" lane="left_1" pos="166.94" speed="0.60" angle="90.00" x="262.50" y="139.77"/>
        <vehicle id="4_2" eclass="HBEFA3/PC_G_EU4" CO2="2699.38" CO="156.69" HC="0.78" NOx="1.22" PMx="0.06" fuel="1.16" electricity="0.00" noise="60.55" route="routeleft" type="4" waiting="0.00" lane="left_0" pos="278.00" speed="0.55" angle="90.00" x="370.60" y="136.47"/>
        <vehicle id="4_3" eclass="HBEFA3/PC_G_EU4" CO2="2697.66" CO="156.86" HC="0.78" NOx="1.22" PMx="0.06" fuel="1.16" electricity="0.00" noise="60.54" route="routeleft" type="4" waiting="0.00" lane="left_1" pos="280.23" speed="0.54" angle="90.00" x="372.78" y="139.77"/>
        <vehicle id="4_4" eclass="HBEFA3/PC_G_EU4" CO2="2706.10" CO="156.00" HC="0.77" NOx="1.23" PMx="0.06" fuel="1.16" electricity="0.00" noise="60.57" route="routediverge" type="4" waiting="0.00" lane="diverge_0" pos="103.04" speed="0.60" angle="135.00" x="675.37" y="63.72"/>
    </timestep>
    <timestep time="1.00">
        <vehicle id="1_0" eclass="HBEFA3/PC_G_EU4" CO2="2701.79" CO="152.98" HC="0.76" NOx="1.22" PMx="0.06" fuel="1.16" electricity="0.00" noise="60.01" route="!1_0!var#1" type="1" waiting="0.00" lane="inflow_highway_0" pos="1.86" speed="0.77" angle="90.00" x="1.86" y="136.47"/>
        <vehicle id="1_1" eclass="HBEFA3/PC_G_EU4" CO2="2714.00" CO="155.20" HC="0.77" NOx="1.23" PMx="0.06" fuel="1.17" electricity="0.00" noise="60.59" route="!1_1!var#1" type="1" waiting="0.00" lane="inflow_highway_1" pos="6.06" speed="0.66" angle="90.00" x="6.06" y="139.77"/>