<?xml version="1.0" encoding="UTF-8"?>

<!-- generated on Mon Nov 19 21:40:35 2018 by SUMO gui Version b'v0_31_0-812-g1d4338ab80'
<?xml version="1.0" encoding="UTF-8"?>

<configuration xmlns:xsi="http://www.w3.org/2001/XMLSchema-instance" xsi:noNamespaceSchemaLocation="http://sumo.dlr.de/xsd/sumoConfiguration.xsd">

    <input>
        <net-file value="/Users/barryfan/flow/flow/scenarios/debug/cfg/merge-baseline_20181119-2140341542692434.561483.net.xml"/>
        <route-files value="/Users/barryfan/flow/flow/scenarios/debug/cfg/merge-baseline_20181119-2140341542692434.561483.rou.xml"/>
        <additional-files value="/Users/barryfan/flow/flow/scenarios/debug/cfg/merge-baseline_20181119-2140341542692434.561483.add.xml"/>
    </input>

    <output>
        <emission-output value="./data/merge-baseline_20181119-2140341542692434.561483-emission.xml"/>
    </output>

    <time>
        <begin value="0"/>
        <step-length value="0.2"/>
    </time>

    <processing>
        <lateral-resolution value="0.2"/>
        <time-to-teleport value="-1"/>
    </processing>

    <report>
        <no-step-log value="true"/>
    </report>

    <traci_server>
        <remote-port value="63687"/>
    </traci_server>

    <gui_only>
        <gui-settings-file value="/Users/barryfan/flow/flow/scenarios/debug/cfg/merge-baseline_20181119-2140341542692434.561483.gui.cfg"/>
        <tracker-interval value="0.2"/>
    </gui_only>

</configuration>
-->

<emission-export xmlns:xsi="http://www.w3.org/2001/XMLSchema-instance" xsi:noNamespaceSchemaLocation="http://sumo.dlr.de/xsd/emission_file.xsd">
    <timestep time="0.00">
        <vehicle id="1_0" eclass="HBEFA3/PC_G_EU4" CO2="2624.72" CO="164.78" HC="0.81" NOx="1.20" PMx="0.07" fuel="1.13" electricity="0.00" noise="55.94" route="routeleft" type="1" waiting="0.00" lane="left_0" pos="4.03" speed="0.00" angle="90.00" x="103.93" y="136.47"/>
        <vehicle id="1_1" eclass="HBEFA3/PC_G_EU4" CO2="2624.72" CO="164.78" HC="0.81" NOx="1.20" PMx="0.07" fuel="1.13" electricity="0.00" noise="55.94" route="routeleft" type="1" waiting="0.00" lane="left_1" pos="8.69" speed="0.00" angle="90.00" x="108.46" y="139.77"/>
        <vehicle id="1_2" eclass="HBEFA3/PC_G_EU4" CO2="2624.72" CO="164.78" HC="0.81" NOx="1.20" PMx="0.07" fuel="1.13" electricity="0.00" noise="55.94" route="routeleft" type="1" waiting="0.00" lane="left_0" pos="120.24" speed="0.00" angle="90.00" x="217.04" y="136.47"/>
        <vehicle id="1_3" eclass="HBEFA3/PC_G_EU4" CO2="2624.72" CO="164.78" HC="0.81" NOx="1.20" PMx="0.07" fuel="1.13" electricity="0.00" noise="55.94" route="routeleft" type="1" waiting="0.00" lane="left_1" pos="123.75" speed="0.00" angle="90.00" x="220.46" y="139.77"/>
        <vehicle id="1_4" eclass="HBEFA3/PC_G_EU4" CO2="2624.72" CO="164.78" HC="0.81" NOx="1.20" PMx="0.07" fuel="1.13" electricity="0.00" noise="55.94" route="routeleft" type="1" waiting="0.00" lane="left_0" pos="239.32" speed="0.00" angle="90.00" x="332.95" y="136.47"/>
        <vehicle id="2_0" eclass="HBEFA3/PC_G_EU4" CO2="2624.72" CO="164.78" HC="0.81" NOx="1.20" PMx="0.07" fuel="1.13" electricity="0.00" noise="55.94" route="routeleft" type="2" waiting="0.00" lane="left_1" pos="245.71" speed="0.00" angle="90.00" x="339.17" y="139.77"/>
        <vehicle id="2_1" eclass="HBEFA3/PC_G_EU4" CO2="2624.72" CO="164.78" HC="0.81" NOx="1.20" PMx="0.07" fuel="1.13" electricity="0.00" noise="55.94" route="routeinflow_merge" type="2" waiting="0.00" lane="inflow_merge_0" pos="56.81" speed="0.00" angle="45.00" x="299.92" y="39.00"/>
        <vehicle id="2_2" eclass="HBEFA3/PC_G_EU4" CO2="2624.72" CO="164.78" HC="0.81" NOx="1.20" PMx="0.07" fuel="1.13" electricity="0.00" noise="55.94" route="routeright" type="2" waiting="0.00" lane="right_0" pos="86.32" speed="0.00" angle="90.00" x="692.58" y="136.47"/>
        <vehicle id="2_3" eclass="HBEFA3/PC_G_EU4" CO2="2624.72" CO="164.78" HC="0.81" NOx="1.20" PMx="0.07" fuel="1.13" electricity="0.00" noise="55.94" route="routeright" type="2" waiting="0.00" lane="right_1" pos="91.73" speed="0.00" angle="90.00" x="697.88" y="139.77"/>
        <vehicle id="2_4" eclass="HBEFA3/PC_G_EU4" CO2="2624.72" CO="164.78" HC="0.81" NOx="1.20" PMx="0.07" fuel="1.13" electricity="0.00" noise="55.94" route="routeright" type="2" waiting="0.00" lane="right_0" pos="203.89" speed="0.00" angle="90.00" x="807.81" y="136.47"/>
        <vehicle id="3_0" eclass="HBEFA3/PC_G_EU4" CO2="2624.72" CO="164.78" HC="0.81" NOx="1.20" PMx="0.07" fuel="1.13" electricity="0.00" noise="55.94" route="routeright" type="3" waiting="0.00" lane="right_1" pos="195.02" speed="0.00" angle="90.00" x="799.11" y="139.77"/>
        <vehicle id="3_1" eclass="HBEFA3/PC_G_EU4" CO2="2624.72" CO="164.78" HC="0.81" NOx="1.20" PMx="0.07" fuel="1.13" electricity="0.00" noise="55.94" route="routeright" type="3" waiting="0.00" lane="right_0" pos="319.65" speed="0.00" angle="90.00" x="921.25" y="136.47"/>
        <vehicle id="3_2" eclass="HBEFA3/PC_G_EU4" CO2="2624.72" CO="164.78" HC="0.81" NOx="1.20" PMx="0.07" fuel="1.13" electricity="0.00" noise="55.94" route="routeright" type="3" waiting="0.00" lane="right_1" pos="317.83" speed="0.00" angle="90.00" x="919.47" y="139.77"/>
        <vehicle id="3_3" eclass="HBEFA3/PC_G_EU4" CO2="2624.72" CO="164.78" HC="0.81" NOx="1.20" PMx="0.07" fuel="1.13" electricity="0.00" noise="55.94" route="routemerge" type="3" waiting="0.00" lane="merge_0" pos="38.14" speed="0.00" angle="45.00" x="354.54" y="93.62"/>
        <vehicle id="3_4" eclass="HBEFA3/PC_G_EU4" CO2="2624.72" CO="164.78" HC="0.81" NOx="1.20" PMx="0.07" fuel="1.13" electricity="0.00" noise="55.94" route="routeinflow_highway" type="3" waiting="0.00" lane="inflow_highway_0" pos="62.55" speed="0.00" angle="90.00" x="62.55" y="136.47"/>
        <vehicle id="4_0" eclass="HBEFA3/PC_G_EU4" CO2="2624.72" CO="164.78" HC="0.81" NOx="1.20" PMx="0.07" fuel="1.13" electricity="0.00" noise="55.94" route="routeinflow_highway" type="4" waiting="0.00" lane="inflow_highway_1" pos="65.31" speed="0.00" angle="90.00" x="65.31" y="139.77"/>
        <vehicle id="4_1" eclass="HBEFA3/PC_G_EU4" CO2="2624.72" CO="164.78" HC="0.81" NOx="1.20" PMx="0.07" fuel="1.13" electricity="0.00" noise="55.94" route="routediverge" type="4" waiting="0.00" lane="diverge_0" pos="88.04" speed="0.00" angle="135.00" x="665.33" y="73.76"/>
        <vehicle id="4_2" eclass="HBEFA3/PC_G_EU4" CO2="2624.72" CO="164.78" HC="0.81" NOx="1.20" PMx="0.07" fuel="1.13" electricity="0.00" noise="55.94" route="routecenter" type="4" waiting="0.00" lane="center_0" pos="0.00" speed="0.00" angle="65.13" x="399.55" y="136.47"/>
        <vehicle id="4_3" eclass="HBEFA3/PC_G_EU4" CO2="2624.72" CO="164.78" HC="0.81" NOx="1.20" PMx="0.07" fuel="1.13" electricity="0.00" noise="55.94" route="routecenter" type="4" waiting="0.00" lane="center_1" pos="4.55" speed="0.00" angle="90.00" x="404.12" y="139.77"/>
        <vehicle id="4_4" eclass="HBEFA3/PC_G_EU4" CO2="2624.72" CO="164.78" HC="0.81" NOx="1.20" PMx="0.07" fuel="1.13" electricity="0.00" noise="55.94" route="routecenter" type="4" waiting="0.00" lane="center_0" pos="118.28" speed="0.00" angle="90.00" x="518.36" y="136.47"/>
    </timestep>
    <timestep time="0.20">
        <vehicle id="1_0" eclass="HBEFA3/PC_G_EU4" CO2="2624.72" CO="164.78" HC="0.81" NOx="1.20" PMx="0.07" fuel="1.13" electricity="0.00" noise="55.94" route="routeleft" type="1" waiting="0.00" lane="left_0" pos="4.03" speed="0.00" angle="90.00" x="103.93" y="136.47"/>
        <vehicle id="1_1" eclass="HBEFA3/PC_G_EU4" CO2="2624.72" CO="164.78" HC="0.81" NOx="1.20" PMx="0.07" fuel="1.13" electricity="0.00" noise="55.94" route="routeleft" type="1" waiting="0.00" lane="left_1" pos="8.69" speed="0.00" angle="90.00" x="108.46" y="139.77"/>
        <vehicle id="1_2" eclass="HBEFA3/PC_G_EU4" CO2="2624.72" CO="164.78" HC="0.81" NOx="1.20" PMx="0.07" fuel="1.13" electricity="0.00" noise="55.94" route="routeleft" type="1" waiting="0.00" lane="left_0" pos="120.24" speed="0.00" angle="90.00" x="217.04" y="136.47"/>
        <vehicle id="1_3" eclass="HBEFA3/PC_G_EU4" CO2="2624.72" CO="164.78" HC="0.81" NOx="1.20" PMx="0.07" fuel="1.13" electricity="0.00" noise="55.94" route="routeleft" type="1" waiting="0.00" lane="left_1" pos="123.75" speed="0.00" angle="90.00" x="220.46" y="139.77"/>
        <vehicle id="1_4" eclass="HBEFA3/PC_G_EU4" CO2="2624.72" CO="164.78" HC="0.81" NOx="1.20" PMx="0.07" fuel="1.13" electricity="0.00" noise="55.94" route="routeleft" type="1" waiting="0.00" lane="left_0" pos="239.32" speed="0.00" angle="90.00" x="332.95" y="136.47"/>
        <vehicle id="2_0" eclass="HBEFA3/PC_G_EU4" CO2="2624.72" CO="164.78" HC="0.81" NOx="1.20" PMx="0.07" fuel="1.13" electricity="0.00" noise="55.94" route="routeleft" type="2" waiting="0.00" lane="left_1" pos="245.71" speed="0.00" angle="90.00" x="339.17" y="139.77"/>
        <vehicle id="2_1" eclass="HBEFA3/PC_G_EU4" CO2="2624.72" CO="164.78" HC="0.81" NOx="1.20" PMx="0.07" fuel="1.13" electricity="0.00" noise="55.94" route="routeinflow_merge" type="2" waiting="0.00" lane="inflow_merge_0" pos="56.81" speed="0.00" angle="45.00" x="299.92" y="39.00"/>
        <vehicle id="2_2" eclass="HBEFA3/PC_G_EU4" CO2="2624.72" CO="164.78" HC="0.81" NOx="1.20" PMx="0.07" fuel="1.13" electricity="0.00" noise="55.94" route="routeright" type="2" waiting="0.00" lane="right_0" pos="86.32" speed="0.00" angle="90.00" x="692.58" y="136.47"/>
        <vehicle id="2_3" eclass="HBEFA3/PC_G_EU4" CO2="2624.72" CO="164.78" HC="0.81" NOx="1.20" PMx="0.07" fuel="1.13" electricity="0.00" noise="55.94" route="routeright" type="2" waiting="0.00" lane="right_1" pos="91.73" speed="0.00" angle="90.00" x="697.88" y="139.77"/>
        <vehicle id="2_4" eclass="HBEFA3/PC_G_EU4" CO2="2624.72" CO="164.78" HC="0.81" NOx="1.20" PMx="0.07" fuel="1.13" electricity="0.00" noise="55.94" route="routeright" type="2" waiting="0.00" lane="right_0" pos="203.89" speed="0.00" angle="90.00" x="807.81" y="136.47"/>
        <vehicle id="3_0" eclass="HBEFA3/PC_G_EU4" CO2="2624.72" CO="164.78" HC="0.81" NOx="1.20" PMx="0.07" fuel="1.13" electricity="0.00" noise="55.94" route="routeright" type="3" waiting="0.00" lane="right_1" pos="195.02" speed="0.00" angle="90.00" x="799.11" y="139.77"/>
        <vehicle id="3_1" eclass="HBEFA3/PC_G_EU4" CO2="2624.72" CO="164.78" HC="0.81" NOx="1.20" PMx="0.07" fuel="1.13" electricity="0.00" noise="55.94" route="routeright" type="3" waiting="0.00" lane="right_0" pos="319.65" speed="0.00" angle="90.00" x="921.25" y="136.47"/>
        <vehicle id="3_2" eclass="HBEFA3/PC_G_EU4" CO2="2624.72" CO="164.78" HC="0.81" NOx="1.20" PMx="0.07" fuel="1.13" electricity="0.00" noise="55.94" route="routeright" type="3" waiting="0.00" lane="right_1" pos="317.83" speed="0.00" angle="90.00" x="919.47" y="139.77"/>
        <vehicle id="3_3" eclass="HBEFA3/PC_G_EU4" CO2="2624.72" CO="164.78" HC="0.81" NOx="1.20" PMx="0.07" fuel="1.13" electricity="0.00" noise="55.94" route="routemerge" type="3" waiting="0.00" lane="merge_0" pos="38.14" speed="0.00" angle="45.00" x="354.54" y="93.62"/>
        <vehicle id="3_4" eclass="HBEFA3/PC_G_EU4" CO2="2624.72" CO="164.78" HC="0.81" NOx="1.20" PMx="0.07" fuel="1.13" electricity="0.00" noise="55.94" route="routeinflow_highway" type="3" waiting="0.00" lane="inflow_highway_0" pos="62.55" speed="0.00" angle="90.00" x="62.55" y="136.47"/>
        <vehicle id="4_0" eclass="HBEFA3/PC_G_EU4" CO2="2624.72" CO="164.78" HC="0.81" NOx="1.20" PMx="0.07" fuel="1.13" electricity="0.00" noise="55.94" route="routeinflow_highway" type="4" waiting="0.00" lane="inflow_highway_1" pos="65.31" speed="0.00" angle="90.00" x="65.31" y="139.77"/>
        <vehicle id="4_1" eclass="HBEFA3/PC_G_EU4" CO2="2624.72" CO="164.78" HC="0.81" NOx="1.20" PMx="0.07" fuel="1.13" electricity="0.00" noise="55.94" route="routediverge" type="4" waiting="0.00" lane="diverge_0" pos="88.04" speed="0.00" angle="135.00" x="665.33" y="73.76"/>
        <vehicle id="4_2" eclass="HBEFA3/PC_G_EU4" CO2="2624.72" CO="164.78" HC="0.81" NOx="1.20" PMx="0.07" fuel="1.13" electricity="0.00" noise="55.94" route="routecenter" type="4" waiting="0.00" lane="center_0" pos="0.00" speed="0.00" angle="65.13" x="399.55" y="136.47"/>
        <vehicle id="4_3" eclass="HBEFA3/PC_G_EU4" CO2="2624.72" CO="164.78" HC="0.81" NOx="1.20" PMx="0.07" fuel="1.13" electricity="0.00" noise="55.94" route="routecenter" type="4" waiting="0.00" lane="center_1" pos="4.55" speed="0.00" angle="90.00" x="404.12" y="139.77"/>
        <vehicle id="4_4" eclass="HBEFA3/PC_G_EU4" CO2="2624.72" CO="164.78" HC="0.81" NOx="1.20" PMx="0.07" fuel="1.13" electricity="0.00" noise="55.94" route="routecenter" type="4" waiting="0.00" lane="center_0" pos="118.28" speed="0.00" angle="90.00" x="518.36" y="136.47"/>
    </timestep>
    <timestep time="0.40">
        <vehicle id="1_0" eclass="HBEFA3/PC_G_EU4" CO2="2650.80" CO="161.81" HC="0.80" NOx="1.21" PMx="0.07" fuel="1.14" electricity="0.00" noise="60.39" route="routeleft" type="1" waiting="0.00" lane="left_0" pos="4.07" speed="0.20" angle="90.00" x="103.97" y="136.47"/>
        <vehicle id="1_1" eclass="HBEFA3/PC_G_EU4" CO2="2650.80" CO="161.81" HC="0.80" NOx="1.21" PMx="0.07" fuel="1.14" electricity="0.00" noise="60.39" route="routeleft" type="1" waiting="0.00" lane="left_1" pos="8.73" speed="0.20" angle="90.00" x="108.49" y="139.77"/>
        <vehicle id="1_2" eclass="HBEFA3/PC_G_EU4" CO2="2650.80" CO="161.81" HC="0.80" NOx="1.21" PMx="0.07" fuel="1.14" electricity="0.00" noise="60.39" route="routeleft" type="1" waiting="0.00" lane="left_0" pos="120.28" speed="0.20" angle="90.00" x="217.08" y="136.47"/>
        <vehicle id="1_3" eclass="HBEFA3/PC_G_EU4" CO2="2650.81" CO="161.81" HC="0.80" NOx="1.21" PMx="0.07" fuel="1.14" electricity="0.00" noise="60.39" route="routeleft" type="1" waiting="0.00" lane="left_1" pos="123.79" speed="0.20" angle="90.00" x="220.50" y="139.77"/>
        <vehicle id="1_4" eclass="HBEFA3/PC_G_EU4" CO2="2650.75" CO="161.82" HC="0.80" NOx="1.21" PMx="0.07" fuel="1.14" electricity="0.00" noise="60.39" route="routeleft" type="1" waiting="0.00" lane="left_0" pos="239.36" speed="0.20" angle="90.00" x="332.99" y="136.47"/>
        <vehicle id="2_0" eclass="HBEFA3/PC_G_EU4" CO2="2650.75" CO="161.82" HC="0.80" NOx="1.21" PMx="0.07" fuel="1.14" electricity="0.00" noise="60.39" route="routeleft" type="2" waiting="0.00" lane="left_1" pos="245.75" speed="0.20" angle="90.00" x="339.21" y="139.77"/>
        <vehicle id="2_1" eclass="HBEFA3/PC_G_EU4" CO2="2650.77" CO="161.82" HC="0.80" NOx="1.21" PMx="0.07" fuel="1.14" electricity="0.00" noise="60.39" route="routeinflow_merge" type="2" waiting="0.00" lane="inflow_merge_0" pos="56.85" speed="0.20" angle="45.00" x="299.95" y="39.03"/>
        <vehicle id="2_2" eclass="HBEFA3/PC_G_EU4" CO2="2650.80" CO="161.81" HC="0.80" NOx="1.21" PMx="0.07" fuel="1.14" electricity="0.00" noise="60.39" route="routeright" type="2" waiting="0.00" lane="right_0" pos="86.36" speed="0.20" angle="90.00" x="692.62" y="136.47"/>
        <vehicle id="2_3" eclass="HBEFA3/PC_G_EU4" CO2="2650.80" CO="161.81" HC="0.80" NOx="1.21" PMx="0.07" fuel="1.14" electricity="0.00" noise="60.39" route="routeright" type="2" waiting="0.00" lane="right_1" pos="91.77" speed="0.20" angle="90.00" x="697.92" y="139.77"/>
        <vehicle id="2_4" eclass="HBEFA3/PC_G_EU4" CO2="2650.80" CO="161.81" HC="0.80" NOx="1.21" PMx="0.07" fuel="1.14" electricity="0.00" noise="60.39" route="routeright" type="2" waiting="0.00" lane="right_0" pos="203.93" speed="0.20" angle="90.00" x="807.84" y="136.47"/>
        <vehicle id="3_0" eclass="HBEFA3/PC_G_EU4" CO2="2650.81" CO="161.81" HC="0.80" NOx="1.21" PMx="0.07" fuel="1.14" electricity="0.00" noise="60.39" route="routeright" type="3" waiting="0.00" lane="right_1" pos="195.06" speed="0.20" angle="90.00" x="799.15" y="139.77"/>
        <vehicle id="3_1" eclass="HBEFA3/PC_G_EU4" CO2="2650.83" CO="161.81" HC="0.80" NOx="1.21" PMx="0.07" fuel="1.14" electricity="0.00" noise="60.39" route="routeright" type="3" waiting="0.00" lane="right_0" pos="319.69" speed="0.20" angle="90.00" x="921.29" y="136.47"/>
        <vehicle id="3_2" eclass="HBEFA3/PC_G_EU4" CO2="2650.83" CO="161.81" HC="0.80" NOx="1.21" PMx="0.07" fuel="1.14" electricity="0.00" noise="60.39" route="routeright" type="3" waiting="0.00" lane="right_1" pos="317.87" speed="0.20" angle="90.00" x="919.51" y="139.77"/>
        <vehicle id="3_3" eclass="HBEFA3/PC_G_EU4" CO2="2650.75" CO="161.82" HC="0.80" NOx="1.21" PMx="0.07" fuel="1.14" electricity="0.00" noise="60.39" route="routemerge" type="3" waiting="0.00" lane="merge_0" pos="38.18" speed="0.20" angle="45.00" x="354.57" y="93.65"/>
        <vehicle id="3_4" eclass="HBEFA3/PC_G_EU4" CO2="2650.60" CO="161.82" HC="0.80" NOx="1.21" PMx="0.07" fuel="1.14" electricity="0.00" noise="60.38" route="routeinflow_highway" type="3" waiting="0.00" lane="inflow_highway_0" pos="62.59" speed="0.20" angle="90.00" x="62.59" y="136.47"/>
        <vehicle id="4_0" eclass="HBEFA3/PC_G_EU4" CO2="2650.62" CO="161.82" HC="0.80" NOx="1.21" PMx="0.07" fuel="1.14" electricity="0.00" noise="60.38" route="routeinflow_highway" type="4" waiting="0.00" lane="inflow_highway_1" pos="65.35" speed="0.20" angle="90.00" x="65.35" y="139.77"/>
        <vehicle id="4_1" eclass="HBEFA3/PC_G_EU4" CO2="2650.83" CO="161.81" HC="0.80" NOx="1.21" PMx="0.07" fuel="1.14" electricity="0.00" noise="60.39" route="routediverge" type="4" waiting="0.00" lane="diverge_0" pos="88.08" speed="0.20" angle="135.00" x="665.35" y="73.73"/>
        <vehicle id="4_2" eclass="HBEFA3/PC_G_EU4" CO2="2650.80" CO="161.81" HC="0.80" NOx="1.21" PMx="0.07" fuel="1.14" electricity="0.00" noise="60.39" route="routecenter" type="4" waiting="0.00" lane="center_0" pos="0.04" speed="0.20" angle="65.52" x="399.59" y="136.47"/>
        <vehicle id="4_3" eclass="HBEFA3/PC_G_EU4" CO2="2650.82" CO="161.81" HC="0.80" NOx="1.21" PMx="0.07" fuel="1.14" electricity="0.00" noise="60.39" route="routecenter" type="4" waiting="0.00" lane="center_1" pos="4.59" speed="0.20" angle="90.00" x="404.16" y="139.77"/>
        <vehicle id="4_4" eclass="HBEFA3/PC_G_EU4" CO2="2650.82" CO="161.81" HC="0.80" NOx="1.21" PMx="0.07" fuel="1.14" electricity="0.00" noise="60.39" route="routecenter" type="4" waiting="0.00" lane="center_0" pos="118.32" speed="0.20" angle="90.00" x="518.40" y="136.47"/>
    </timestep>
    <timestep time="0.60">
        <vehicle id="1_0" eclass="HBEFA3/PC_G_EU4" CO2="2677.50" CO="158.90" HC="0.79" NOx="1.22" PMx="0.07" fuel="1.15" electricity="0.00" noise="60.47" route="routeleft" type="1" waiting="0.00" lane="left_0" pos="4.15" speed="0.40" angle="90.00" x="104.04" y="136.47"/>
        <vehicle id="1_1" eclass="HBEFA3/PC_G_EU4" CO2="2677.49" CO="158.90" HC="0.79" NOx="1.22" PMx="0.07" fuel="1.15" electricity="0.00" noise="60.47" route="routeleft" type="1" waiting="0.00" lane="left_1" pos="8.81" speed="0.40" angle="90.00" x="108.57" y="139.77"/>
        <vehicle id="1_2" eclass="HBEFA3/PC_G_EU4" CO2="2677.50" CO="158.90" HC="0.79" NOx="1.22" PMx="0.07" fuel="1.15" electricity="0.00" noise="60.47" route="routeleft" type="1" waiting="0.00" lane="left_0" pos="120.36" speed="0.40" angle="90.00" x="217.16" y="136.47"/>
        <vehicle id="1_3" eclass="HBEFA3/PC_G_EU4" CO2="2677.50" CO="158.90" HC="0.79" NOx="1.22" PMx="0.07" fuel="1.15" electricity="0.00" noise="60.47" route="routeleft" type="1" waiting="0.00" lane="left_1" pos="123.87" speed="0.40" angle="90.00" x="220.58" y="139.77"/>
        <vehicle id="1_4" eclass="HBEFA3/PC_G_EU4" CO2="2677.37" CO="158.90" HC="0.79" NOx="1.22" PMx="0.07" fuel="1.15" electricity="0.00" noise="60.46" route="routeleft" type="1" waiting="0.00" lane="left_0" pos="239.44" speed="0.40" angle="90.00" x="333.07" y="136.47"/>
        <vehicle id="2_0" eclass="HBEFA3/PC_G_EU4" CO2="2677.36" CO="158.90" HC="0.79" NOx="1.22" PMx="0.07" fuel="1.15" electricity="0.00" noise="60.46" route="routeleft" type="2" waiting="0.00" lane="left_1" pos="245.83" speed="0.40" angle="90.00" x="339.29" y="139.77"/>
        <vehicle id="2_1" eclass="HBEFA3/PC_G_EU4" CO2="2677.43" CO="158.90" HC="0.79" NOx="1.22" PMx="0.07" fuel="1.15" electricity="0.00" noise="60.46" route="routeinflow_merge" type="2" waiting="0.00" lane="inflow_merge_0" pos="56.93" speed="0.40" angle="45.00" x="300.00" y="39.08"/>
        <vehicle id="2_2" eclass="HBEFA3/PC_G_EU4" CO2="2677.50" CO="158.90" HC="0.79" NOx="1.22" PMx="0.07" fuel="1.15" electricity="0.00" noise="60.47" route="routeright" type="2" waiting="0.00" lane="right_0" pos="86.44" speed="0.40" angle="90.00" x="692.69" y="136.47"/>
        <vehicle id="2_3" eclass="HBEFA3/PC_G_EU4" CO2="2677.48" CO="158.90" HC="0.79" NOx="1.22" PMx="0.07" fuel="1.15" electricity="0.00" noise="60.46" route="routeright" type="2" waiting="0.00" lane="right_1" pos="91.85" speed="0.40" angle="90.00" x="698.00" y="139.77"/>
        <vehicle id="2_4" eclass="HBEFA3/PC_G_EU4" CO2="2677.50" CO="158.90" HC="0.79" NOx="1.22" PMx="0.07" fuel="1.15" electricity="0.00" noise="60.47" route="routeright" type="2" waiting="0.00" lane="right_0" pos="204.01" speed="0.40" angle="90.00" x="807.92" y="136.47"/>
        <vehicle id="3_0" eclass="HBEFA3/PC_G_EU4" CO2="2677.50" CO="158.90" HC="0.79" NOx="1.22" PMx="0.07" fuel="1.15" electricity="0.00" noise="60.47" route="routeright" type="3" waiting="0.00" lane="right_1" pos="195.14" speed="0.40" angle="90.00" x="799.23" y="139.77"/>
        <vehicle id="3_1" eclass="HBEFA3/PC_G_EU4" CO2="2677.56" CO="158.90" HC="0.79" NOx="1.22" PMx="0.07" fuel="1.15" electricity="0.00" noise="60.47" route="routeright" type="3" waiting="0.00" lane="right_0" pos="319.77" speed="0.40" angle="90.00" x="921.37" y="136.47"/>
        <vehicle id="3_2" eclass="HBEFA3/PC_G_EU4" CO2="2677.56" CO="158.90" HC="0.79" NOx="1.22" PMx="0.07" fuel="1.15" electricity="0.00" noise="60.47" route="routeright" type="3" waiting="0.00" lane="right_1" pos="317.95" speed="0.40" angle="90.00" x="919.58" y="139.77"/>
        <vehicle id="3_3" eclass="HBEFA3/PC_G_EU4" CO2="2677.38" CO="158.90" HC="0.79" NOx="1.22" PMx="0.07" fuel="1.15" electricity="0.00" noise="60.46" route="routemerge" type="3" waiting="0.00" lane="merge_0" pos="38.26" speed="0.40" angle="45.00" x="354.62" y="93.70"/>
        <vehicle id="3_4" eclass="HBEFA3/PC_G_EU4" CO2="2677.01" CO="158.91" HC="0.79" NOx="1.22" PMx="0.07" fuel="1.15" electricity="0.00" noise="60.45" route="routeinflow_highway" type="3" waiting="0.00" lane="inflow_highway_0" pos="62.67" speed="0.40" angle="90.00" x="62.67" y="136.47"/>
        <vehicle id="4_0" eclass="HBEFA3/PC_G_EU4" CO2="2677.06" CO="158.91" HC="0.79" NOx="1.22" PMx="0.07" fuel="1.15" electricity="0.00" noise="60.45" route="routeinflow_highway" type="4" waiting="0.00" lane="inflow_highway_1" pos="65.43" speed="0.40" angle="90.00" x="65.43" y="139.77"/>
        <vehicle id="4_1" eclass="HBEFA3/PC_G_EU4" CO2="2677.56" CO="158.90" HC="0.79" NOx="1.22" PMx="0.07" fuel="1.15" electricity="0.00" noise="60.47" route="routediverge" type="4" waiting="0.00" lane="diverge_0" pos="88.16" speed="0.40" angle="135.00" x="665.41" y="73.68"/>
        <vehicle id="4_2" eclass="HBEFA3/PC_G_EU4" CO2="2677.50" CO="158.90" HC="0.79" NOx="1.22" PMx="0.07" fuel="1.15" electricity="0.00" noise="60.47" route="routecenter" type="4" waiting="0.00" lane="center_0" pos="0.12" speed="0.40" angle="66.28" x="399.67" y="136.47"/>
        <vehicle id="4_3" eclass="HBEFA3/PC_G_EU4" CO2="2677.55" CO="158.90" HC="0.79" NOx="1.22" PMx="0.07" fuel="1.15" electricity="0.00" noise="60.47" route="routecenter" type="4" waiting="0.00" lane="center_1" pos="4.67" speed="0.40" angle="90.00" x="404.24" y="139.77"/>
        <vehicle id="4_4" eclass="HBEFA3/PC_G_EU4" CO2="2677.53" CO="158.90" HC="0.79" NOx="1.22" PMx="0.07" fuel="1.15" electricity="0.00" noise="60.47" route="routecenter" type="4" waiting="0.00" lane="center_0" pos="118.40" speed="0.40" angle="90.00" x="518.48" y="136.47"/>
    </timestep>
    <timestep time="0.80">
        <vehicle id="1_0" eclass="HBEFA3/PC_G_EU4" CO2="2704.80" CO="156.03" HC="0.77" NOx="1.23" PMx="0.06" fuel="1.16" electricity="0.00" noise="60.54" route="routeleft" type="1" waiting="0.00" lane="left_0" pos="4.27" speed="0.60" angle="90.00" x="104.16" y="136.47"/>
        <vehicle id="1_1" eclass="HBEFA3/PC_G_EU4" CO2="2704.80" CO="156.03" HC="0.77" NOx="1.23" PMx="0.06" fuel="1.16" electricity="0.00" noise="60.54" route="routeleft" type="1" waiting="0.00" lane="left_1" pos="8.93" speed="0.60" angle="90.00" x="108.69" y="139.77"/>
        <vehicle id="1_2" eclass="HBEFA3/PC_G_EU4" CO2="2704.81" CO="156.03" HC="0.77" NOx="1.23" PMx="0.06" fuel="1.16" electricity="0.00" noise="60.54" route="routeleft" type="1" waiting="0.00" lane="left_0" pos="120.48" speed="0.60" angle="90.00" x="217.27" y="136.47"/>
        <vehicle id="1_3" eclass="HBEFA3/PC_G_EU4" CO2="2704.81" CO="156.03" HC="0.77" NOx="1.23" PMx="0.06" fuel="1.16" electricity="0.00" noise="60.54" route="routeleft" type="1" waiting="0.00" lane="left_1" pos="123.99" speed="0.60" angle="90.00" x="220.69" y="139.77"/>
        <vehicle id="1_4" eclass="HBEFA3/PC_G_EU4" CO2="2704.58" CO="156.03" HC="0.77" NOx="1.23" PMx="0.06" fuel="1.16" electricity="0.00" noise="60.54" route="routeleft" type="1" waiting="0.00" lane="left_0" pos="239.56" speed="0.60" angle="90.00" x="333.18" y="136.47"/>
        <vehicle id="2_0" eclass="HBEFA3/PC_G_EU4" CO2="2704.56" CO="156.03" HC="0.77" NOx="1.23" PMx="0.06" fuel="1.16" electricity="0.00" noise="60.54" route="routeleft" type="2" waiting="0.00" lane="left_1" pos="245.95" speed="0.60" angle="90.00" x="339.40" y="139.77"/>
        <vehicle id="2_1" eclass="HBEFA3/PC_G_EU4" CO2="2704.68" CO="156.03" HC="0.77" NOx="1.23" PMx="0.06" fuel="1.16" electricity="0.00" noise="60.54" route="routeinflow_merge" type="2" waiting="0.00" lane="inflow_merge_0" pos="57.04" speed="0.60" angle="45.00" x="300.09" y="39.17"/>
        <vehicle id="2_2" eclass="HBEFA3/PC_G_EU4" CO2="2704.80" CO="156.03" HC="0.77" NOx="1.23" PMx="0.06" fuel="1.16" electricity="0.00" noise="60.54" route="routeright" type="2" waiting="0.00" lane="right_0" pos="86.56" speed="0.60" angle="90.00" x="692.81" y="136.47"/>
        <vehicle id="2_3" eclass="HBEFA3/PC_G_EU4" CO2="2704.77" CO="156.03" HC="0.77" NOx="1.23" PMx="0.06" fuel="1.16" electricity="0.00" noise="60.54" route="routeright" type="2" waiting="0.00" lane="right_1" pos="91.97" speed="0.60" angle="90.00" x="698.11" y="139.77"/>
        <vehicle id="2_4" eclass="HBEFA3/PC_G_EU4" CO2="2704.80" CO="156.03" HC="0.77" NOx="1.23" PMx="0.06" fuel="1.16" electricity="0.00" noise="60.54" route="routeright" type="2" waiting="0.00" lane="right_0" pos="204.13" speed="0.60" angle="90.00" x="808.04" y="136.47"/>
        <vehicle id="3_0" eclass="HBEFA3/PC_G_EU4" CO2="2704.81" CO="156.03" HC="0.77" NOx="1.23" PMx="0.06" fuel="1.16" electricity="0.00" noise="60.54" route="routeright" type="3" waiting="0.00" lane="right_1" pos="195.26" speed="0.60" angle="90.00" x="799.34" y="139.77"/>
        <vehicle id="3_1" eclass="HBEFA3/PC_G_EU4" CO2="2704.91" CO="156.02" HC="0.77" NOx="1.23" PMx="0.06" fuel="1.16" electricity="0.00" noise="60.54" route="routeright" type="3" waiting="0.00" lane="right_0" pos="319.89" speed="0.60" angle="90.00" x="921.49" y="136.47"/>
        <vehicle id="3_2" eclass="HBEFA3/PC_G_EU4" CO2="2704.91" CO="156.02" HC="0.77" NOx="1.23" PMx="0.06" fuel="1.16" electricity="0.00" noise="60.54" route="routeright" type="3" waiting="0.00" lane="right_1" pos="318.07" speed="0.60" angle="90.00" x="919.70" y="139.77"/>
        <vehicle id="3_3" eclass="HBEFA3/PC_G_EU4" CO2="2704.59" CO="156.03" HC="0.77" NOx="1.23" PMx="0.06" fuel="1.16" electricity="0.00" noise="60.54" route="routemerge" type="3" waiting="0.00" lane="merge_0" pos="38.38" speed="0.60" angle="45.00" x="354.69" y="93.77"/>
        <vehicle id="3_4" eclass="HBEFA3/PC_G_EU4" CO2="2703.94" CO="156.04" HC="0.77" NOx="1.23" PMx="0.06" fuel="1.16" electricity="0.00" noise="60.52" route="routeinflow_highway" type="3" waiting="0.00" lane="inflow_highway_0" pos="62.79" speed="0.59" angle="90.00" x="62.79" y="136.47"/>
        <vehicle id="4_0" eclass="HBEFA3/PC_G_EU4" CO2="2704.03" CO="156.04" HC="0.77" NOx="1.23" PMx="0.06" fuel="1.16" electricity="0.00" noise="60.52" route="routeinflow_highway" type="4" waiting="0.00" lane="inflow_highway_1" pos="65.55" speed="0.60" angle="90.00" x="65.55" y="139.77"/>
        <vehicle id="4_1" eclass="HBEFA3/PC_G_EU4" CO2="2704.91" CO="156.02" HC="0.77" NOx="1.23" PMx="0.06" fuel="1.16" electricity="0.00" noise="60.54" route="routediverge" type="4" waiting="0.00" lane="diverge_0" pos="88.28" speed="0.60" angle="135.00" x="665.49" y="73.60"/>
        <vehicle id="4_2" eclass="HBEFA3/PC_G_EU4" CO2="2704.80" CO="156.03" HC="0.77" NOx="1.23" PMx="0.06" fuel="1.16" electricity="0.00" noise="60.54" route="routecenter" type="4" waiting="0.00" lane="center_0" pos="0.24" speed="0.60" angle="67.43" x="399.79" y="136.47"/>
        <vehicle id="4_3" eclass="HBEFA3/PC_G_EU4" CO2="2704.89" CO="156.03" HC="0.77" NOx="1.23" PMx="0.06" fuel="1.16" electricity="0.00" noise="60.54" route="routecenter" type="4" waiting="0.00" lane="center_1" pos="4.78" speed="0.60" angle="90.00" x="404.36" y="139.77"/>
        <vehicle id="4_4" eclass="HBEFA3/PC_G_EU4" CO2="2704.86" CO="156.03" HC="0.77" NOx="1.23" PMx="0.06" fuel="1.16" electricity="0.00" noise="60.54" route="routecenter" type="4" waiting="0.00" lane="center_0" pos="118.52" speed="0.60" angle="90.00" x="518.60" y="136.47"/>
    </timestep>
    <timestep time="1.00">
        <vehicle id="1_0" eclass="HBEFA3/PC_G_EU4" CO2="2732.71" CO="153.20" HC="0.76" NOx="1.23" PMx="0.06" fuel="1.17" electricity="0.00" noise="60.62" route="routeleft" type="1" waiting="0.00" lane="left_0" pos="4.43" speed="0.80" angle="90.00" x="104.31" y="136.47"/>