<?xml version="1.0" encoding="UTF-8"?>

<!-- generated on Mon Nov 19 21:10:25 2018 by SUMO gui Version b'v0_31_0-812-g1d4338ab80'
<?xml version="1.0" encoding="UTF-8"?>

<configuration xmlns:xsi="http://www.w3.org/2001/XMLSchema-instance" xsi:noNamespaceSchemaLocation="http://sumo.dlr.de/xsd/sumoConfiguration.xsd">

    <input>
        <net-file value="/Users/barryfan/flow/flow/scenarios/debug/cfg/merge-baseline_20181119-2110241542690624.736774.net.xml"/>
        <route-files value="/Users/barryfan/flow/flow/scenarios/debug/cfg/merge-baseline_20181119-2110241542690624.736774.rou.xml"/>
        <additional-files value="/Users/barryfan/flow/flow/scenarios/debug/cfg/merge-baseline_20181119-2110241542690624.736774.add.xml"/>
    </input>

    <output>
        <emission-output value="./data/merge-baseline_20181119-2110241542690624.736774-emission.xml"/>
    </output>

    <time>
        <begin value="0"/>
        <step-length value="0.2"/>
    </time>

    <processing>
        <lateral-resolution value="0.2"/>
        <time-to-teleport value="-1"/>
    </processing>

    <report>
        <no-step-log value="true"/>
    </report>

    <traci_server>
        <remote-port value="63475"/>
    </traci_server>

    <gui_only>
        <gui-settings-file value="/Users/barryfan/flow/flow/scenarios/debug/cfg/merge-baseline_20181119-2110241542690624.736774.gui.cfg"/>
        <tracker-interval value="0.2"/>
    </gui_only>

</configuration>
-->

<emission-export xmlns:xsi="http://www.w3.org/2001/XMLSchema-instance" xsi:noNamespaceSchemaLocation="http://sumo.dlr.de/xsd/emission_file.xsd">
    <timestep time="0.00">
        <vehicle id="1_0" eclass="HBEFA3/PC_G_EU4" CO2="2624.72" CO="164.78" HC="0.81" NOx="1.20" PMx="0.07" fuel="1.13" electricity="0.00" noise="55.94" route="routeinflow_highway" type="1" waiting="0.00" lane="inflow_highway_0" pos="1.79" speed="0.00" angle="90.00" x="1.79" y="136.47"/>
        <vehicle id="1_1" eclass="HBEFA3/PC_G_EU4" CO2="2624.72" CO="164.78" HC="0.81" NOx="1.20" PMx="0.07" fuel="1.13" electricity="0.00" noise="55.94" route="routeinflow_highway" type="1" waiting="0.00" lane="inflow_highway_1" pos="0.00" speed="0.00" angle="90.00" x="0.00" y="139.77"/>
        <vehicle id="1_2" eclass="HBEFA3/PC_G_EU4" CO2="2624.72" CO="164.78" HC="0.81" NOx="1.20" PMx="0.07" fuel="1.13" electricity="0.00" noise="55.94" route="routeinflow_merge" type="1" waiting="0.00" lane="inflow_merge_0" pos="13.81" speed="0.00" angle="45.00" x="269.51" y="8.59"/>
        <vehicle id="1_3" eclass="HBEFA3/PC_G_EU4" CO2="2624.72" CO="164.78" HC="0.81" NOx="1.20" PMx="0.07" fuel="1.13" electricity="0.00" noise="55.94" route="routeright" type="1" waiting="0.00" lane="right_0" pos="41.46" speed="0.00" angle="90.00" x="648.61" y="136.47"/>
        <vehicle id="1_4" eclass="HBEFA3/PC_G_EU4" CO2="2624.72" CO="164.78" HC="0.81" NOx="1.20" PMx="0.07" fuel="1.13" electricity="0.00" noise="55.94" route="routeright" type="1" waiting="0.00" lane="right_1" pos="44.30" speed="0.00" angle="90.00" x="651.40" y="139.77"/>
        <vehicle id="2_0" eclass="HBEFA3/PC_G_EU4" CO2="2624.72" CO="164.78" HC="0.81" NOx="1.20" PMx="0.07" fuel="1.13" electricity="0.00" noise="55.94" route="routeright" type="2" waiting="0.00" lane="right_0" pos="162.83" speed="0.00" angle="90.00" x="767.56" y="136.47"/>
        <vehicle id="2_1" eclass="HBEFA3/PC_G_EU4" CO2="2624.72" CO="164.78" HC="0.81" NOx="1.20" PMx="0.07" fuel="1.13" electricity="0.00" noise="55.94" route="routeright" type="2" waiting="0.00" lane="right_1" pos="164.18" speed="0.00" angle="90.00" x="768.88" y="139.77"/>
        <vehicle id="2_2" eclass="HBEFA3/PC_G_EU4" CO2="2624.72" CO="164.78" HC="0.81" NOx="1.20" PMx="0.07" fuel="1.13" electricity="0.00" noise="55.94" route="routeright" type="2" waiting="0.00" lane="right_0" pos="278.01" speed="0.00" angle="90.00" x="880.44" y="136.47"/>
        <vehicle id="2_3" eclass="HBEFA3/PC_G_EU4" CO2="2624.72" CO="164.78" HC="0.81" NOx="1.20" PMx="0.07" fuel="1.13" electricity="0.00" noise="55.94" route="routeright" type="2" waiting="0.00" lane="right_1" pos="283.96" speed="0.00" angle="90.00" x="886.27" y="139.77"/>
        <vehicle id="2_4" eclass="HBEFA3/PC_G_EU4" CO2="2624.72" CO="164.78" HC="0.81" NOx="1.20" PMx="0.07" fuel="1.13" electricity="0.00" noise="55.94" route="routemerge" type="2" waiting="0.00" lane="merge_0" pos="1.79" speed="0.00" angle="45.00" x="331.59" y="70.67"/>
        <vehicle id="3_0" eclass="HBEFA3/PC_G_EU4" CO2="2624.72" CO="164.78" HC="0.81" NOx="1.20" PMx="0.07" fuel="1.13" electricity="0.00" noise="55.94" route="routecenter" type="3" waiting="0.00" lane="center_0" pos="33.08" speed="0.00" angle="90.00" x="432.78" y="136.47"/>
        <vehicle id="3_1" eclass="HBEFA3/PC_G_EU4" CO2="2624.72" CO="164.78" HC="0.81" NOx="1.20" PMx="0.07" fuel="1.13" electricity="0.00" noise="55.94" route="routecenter" type="3" waiting="0.00" lane="center_1" pos="29.14" speed="0.00" angle="90.00" x="428.82" y="139.77"/>
        <vehicle id="3_2" eclass="HBEFA3/PC_G_EU4" CO2="2624.72" CO="164.78" HC="0.81" NOx="1.20" PMx="0.07" fuel="1.13" electricity="0.00" noise="55.94" route="routecenter" type="3" waiting="0.00" lane="center_0" pos="142.52" speed="0.00" angle="90.00" x="542.71" y="136.47"/>
        <vehicle id="3_3" eclass="HBEFA3/PC_G_EU4" CO2="2624.72" CO="164.78" HC="0.81" NOx="1.20" PMx="0.07" fuel="1.13" electricity="0.00" noise="55.94" route="routecenter" type="3" waiting="0.00" lane="center_1" pos="146.21" speed="0.00" angle="90.00" x="546.42" y="139.77"/>
        <vehicle id="3_4" eclass="HBEFA3/PC_G_EU4" CO2="2624.72" CO="164.78" HC="0.81" NOx="1.20" PMx="0.07" fuel="1.13" electricity="0.00" noise="55.94" route="routeleft" type="3" waiting="0.00" lane="left_0" pos="69.27" speed="0.00" angle="90.00" x="167.43" y="136.47"/>
        <vehicle id="4_0" eclass="HBEFA3/PC_G_EU4" CO2="2624.72" CO="164.78" HC="0.81" NOx="1.20" PMx="0.07" fuel="1.13" electricity="0.00" noise="55.94" route="routeleft" type="4" waiting="0.00" lane="left_1" pos="68.84" speed="0.00" angle="90.00" x="167.01" y="139.77"/>
        <vehicle id="4_1" eclass="HBEFA3/PC_G_EU4" CO2="2624.72" CO="164.78" HC="0.81" NOx="1.20" PMx="0.07" fuel="1.13" electricity="0.00" noise="55.94" route="routeleft" type="4" waiting="0.00" lane="left_0" pos="181.53" speed="0.00" angle="90.00" x="276.70" y="136.47"/>
        <vehicle id="4_2" eclass="HBEFA3/PC_G_EU4" CO2="2624.72" CO="164.78" HC="0.81" NOx="1.20" PMx="0.07" fuel="1.13" electricity="0.00" noise="55.94" route="routeleft" type="4" waiting="0.00" lane="left_1" pos="182.58" speed="0.00" angle="90.00" x="277.72" y="139.77"/>
        <vehicle id="4_3" eclass="HBEFA3/PC_G_EU4" CO2="2624.72" CO="164.78" HC="0.81" NOx="1.20" PMx="0.07" fuel="1.13" electricity="0.00" noise="55.94" route="routediverge" type="4" waiting="0.00" lane="diverge_0" pos="4.63" speed="0.00" angle="135.22" x="609.51" y="129.58"/>
        <vehicle id="4_4" eclass="HBEFA3/PC_G_EU4" CO2="2624.72" CO="164.78" HC="0.81" NOx="1.20" PMx="0.07" fuel="1.13" electricity="0.00" noise="55.94" route="routediverge" type="4" waiting="0.00" lane="diverge_0" pos="129.83" speed="0.00" angle="135.00" x="693.29" y="45.79"/>
    </timestep>
    <timestep time="0.20">
        <vehicle id="1_0" eclass="HBEFA3/PC_G_EU4" CO2="2624.72" CO="164.78" HC="0.81" NOx="1.20" PMx="0.07" fuel="1.13" electricity="0.00" noise="55.94" route="routeinflow_highway" type="1" waiting="0.00" lane="inflow_highway_0" pos="1.79" speed="0.00" angle="90.00" x="1.79" y="136.47"/>
        <vehicle id="1_1" eclass="HBEFA3/PC_G_EU4" CO2="2624.72" CO="164.78" HC="0.81" NOx="1.20" PMx="0.07" fuel="1.13" electricity="0.00" noise="55.94" route="routeinflow_highway" type="1" waiting="0.00" lane="inflow_highway_1" pos="0.00" speed="0.00" angle="90.00" x="0.00" y="139.77"/>
        <vehicle id="1_2" eclass="HBEFA3/PC_G_EU4" CO2="2624.72" CO="164.78" HC="0.81" NOx="1.20" PMx="0.07" fuel="1.13" electricity="0.00" noise="55.94" route="routeinflow_merge" type="1" waiting="0.00" lane="inflow_merge_0" pos="13.81" speed="0.00" angle="45.00" x="269.51" y="8.59"/>
        <vehicle id="1_3" eclass="HBEFA3/PC_G_EU4" CO2="2624.72" CO="164.78" HC="0.81" NOx="1.20" PMx="0.07" fuel="1.13" electricity="0.00" noise="55.94" route="routeright" type="1" waiting="0.00" lane="right_0" pos="41.46" speed="0.00" angle="90.00" x="648.61" y="136.47"/>
        <vehicle id="1_4" eclass="HBEFA3/PC_G_EU4" CO2="2624.72" CO="164.78" HC="0.81" NOx="1.20" PMx="0.07" fuel="1.13" electricity="0.00" noise="55.94" route="routeright" type="1" waiting="0.00" lane="right_1" pos="44.30" speed="0.00" angle="90.00" x="651.40" y="139.77"/>
        <vehicle id="2_0" eclass="HBEFA3/PC_G_EU4" CO2="2624.72" CO="164.78" HC="0.81" NOx="1.20" PMx="0.07" fuel="1.13" electricity="0.00" noise="55.94" route="routeright" type="2" waiting="0.00" lane="right_0" pos="162.83" speed="0.00" angle="90.00" x="767.56" y="136.47"/>
        <vehicle id="2_1" eclass="HBEFA3/PC_G_EU4" CO2="2624.72" CO="164.78" HC="0.81" NOx="1.20" PMx="0.07" fuel="1.13" electricity="0.00" noise="55.94" route="routeright" type="2" waiting="0.00" lane="right_1" pos="164.18" speed="0.00" angle="90.00" x="768.88" y="139.77"/>
        <vehicle id="2_2" eclass="HBEFA3/PC_G_EU4" CO2="2624.72" CO="164.78" HC="0.81" NOx="1.20" PMx="0.07" fuel="1.13" electricity="0.00" noise="55.94" route="routeright" type="2" waiting="0.00" lane="right_0" pos="278.01" speed="0.00" angle="90.00" x="880.44" y="136.47"/>
        <vehicle id="2_3" eclass="HBEFA3/PC_G_EU4" CO2="2624.72" CO="164.78" HC="0.81" NOx="1.20" PMx="0.07" fuel="1.13" electricity="0.00" noise="55.94" route="routeright" type="2" waiting="0.00" lane="right_1" pos="283.96" speed="0.00" angle="90.00" x="886.27" y="139.77"/>
        <vehicle id="2_4" eclass="HBEFA3/PC_G_EU4" CO2="2624.72" CO="164.78" HC="0.81" NOx="1.20" PMx="0.07" fuel="1.13" electricity="0.00" noise="55.94" route="routemerge" type="2" waiting="0.00" lane="merge_0" pos="1.79" speed="0.00" angle="45.00" x="331.59" y="70.67"/>
        <vehicle id="3_0" eclass="HBEFA3/PC_G_EU4" CO2="2624.72" CO="164.78" HC="0.81" NOx="1.20" PMx="0.07" fuel="1.13" electricity="0.00" noise="55.94" route="routecenter" type="3" waiting="0.00" lane="center_0" pos="33.08" speed="0.00" angle="90.00" x="432.78" y="136.47"/>
        <vehicle id="3_1" eclass="HBEFA3/PC_G_EU4" CO2="2624.72" CO="164.78" HC="0.81" NOx="1.20" PMx="0.07" fuel="1.13" electricity="0.00" noise="55.94" route="routecenter" type="3" waiting="0.00" lane="center_1" pos="29.14" speed="0.00" angle="90.00" x="428.82" y="139.77"/>
        <vehicle id="3_2" eclass="HBEFA3/PC_G_EU4" CO2="2624.72" CO="164.78" HC="0.81" NOx="1.20" PMx="0.07" fuel="1.13" electricity="0.00" noise="55.94" route="routecenter" type="3" waiting="0.00" lane="center_0" pos="142.52" speed="0.00" angle="90.00" x="542.71" y="136.47"/>
        <vehicle id="3_3" eclass="HBEFA3/PC_G_EU4" CO2="2624.72" CO="164.78" HC="0.81" NOx="1.20" PMx="0.07" fuel="1.13" electricity="0.00" noise="55.94" route="routecenter" type="3" waiting="0.00" lane="center_1" pos="146.21" speed="0.00" angle="90.00" x="546.42" y="139.77"/>
        <vehicle id="3_4" eclass="HBEFA3/PC_G_EU4" CO2="2624.72" CO="164.78" HC="0.81" NOx="1.20" PMx="0.07" fuel="1.13" electricity="0.00" noise="55.94" route="routeleft" type="3" waiting="0.00" lane="left_0" pos="69.27" speed="0.00" angle="90.00" x="167.43" y="136.47"/>
        <vehicle id="4_0" eclass="HBEFA3/PC_G_EU4" CO2="2624.72" CO="164.78" HC="0.81" NOx="1.20" PMx="0.07" fuel="1.13" electricity="0.00" noise="55.94" route="routeleft" type="4" waiting="0.00" lane="left_1" pos="68.84" speed="0.00" angle="90.00" x="167.01" y="139.77"/>
        <vehicle id="4_1" eclass="HBEFA3/PC_G_EU4" CO2="2624.72" CO="164.78" HC="0.81" NOx="1.20" PMx="0.07" fuel="1.13" electricity="0.00" noise="55.94" route="routeleft" type="4" waiting="0.00" lane="left_0" pos="181.53" speed="0.00" angle="90.00" x="276.70" y="136.47"/>
        <vehicle id="4_2" eclass="HBEFA3/PC_G_EU4" CO2="2624.72" CO="164.78" HC="0.81" NOx="1.20" PMx="0.07" fuel="1.13" electricity="0.00" noise="55.94" route="routeleft" type="4" waiting="0.00" lane="left_1" pos="182.58" speed="0.00" angle="90.00" x="277.72" y="139.77"/>
        <vehicle id="4_3" eclass="HBEFA3/PC_G_EU4" CO2="2624.72" CO="164.78" HC="0.81" NOx="1.20" PMx="0.07" fuel="1.13" electricity="0.00" noise="55.94" route="routediverge" type="4" waiting="0.00" lane="diverge_0" pos="4.63" speed="0.00" angle="135.22" x="609.51" y="129.58"/>
        <vehicle id="4_4" eclass="HBEFA3/PC_G_EU4" CO2="2624.72" CO="164.78" HC="0.81" NOx="1.20" PMx="0.07" fuel="1.13" electricity="0.00" noise="55.94" route="routediverge" type="4" waiting="0.00" lane="diverge_0" pos="129.83" speed="0.00" angle="135.00" x="693.29" y="45.79"/>
    </timestep>
    <timestep time="0.40">
        <vehicle id="1_0" eclass="HBEFA3/PC_G_EU4" CO2="2651.22" CO="161.80" HC="0.80" NOx="1.21" PMx="0.07" fuel="1.14" electricity="0.00" noise="60.41" route="routeinflow_highway" type="1" waiting="0.00" lane="inflow_highway_0" pos="1.83" speed="0.20" angle="90.00" x="1.83" y="136.47"/>
        <vehicle id="1_1" eclass="HBEFA3/PC_G_EU4" CO2="2651.22" CO="161.80" HC="0.80" NOx="1.21" PMx="0.07" fuel="1.14" electricity="0.00" noise="60.41" route="routeinflow_highway" type="1" waiting="0.00" lane="inflow_highway_1" pos="0.04" speed="0.20" angle="90.00" x="0.04" y="139.77"/>
        <vehicle id="1_2" eclass="HBEFA3/PC_G_EU4" CO2="2640.59" CO="162.11" HC="0.80" NOx="1.21" PMx="0.07" fuel="1.14" electricity="0.00" noise="59.75" route="routeinflow_merge" type="1" waiting="0.00" lane="inflow_merge_0" pos="13.84" speed="0.17" angle="45.00" x="269.54" y="8.62"/>
        <vehicle id="1_3" eclass="HBEFA3/PC_G_EU4" CO2="2651.22" CO="161.80" HC="0.80" NOx="1.21" PMx="0.07" fuel="1.14" electricity="0.00" noise="60.41" route="routeright" type="1" waiting="0.00" lane="right_0" pos="41.50" speed="0.20" angle="90.00" x="648.65" y="136.47"/>
        <vehicle id="1_4" eclass="HBEFA3/PC_G_EU4" CO2="2641.84" CO="162.07" HC="0.80" NOx="1.21" PMx="0.07" fuel="1.14" electricity="0.00" noise="59.83" route="routeright" type="1" waiting="0.00" lane="right_1" pos="44.33" speed="0.17" angle="90.00" x="651.43" y="139.77"/>
        <vehicle id="2_0" eclass="HBEFA3/PC_G_EU4" CO2="2638.40" CO="162.19" HC="0.80" NOx="1.21" PMx="0.07" fuel="1.13" electricity="0.00" noise="59.59" route="routeright" type="2" waiting="0.00" lane="right_0" pos="162.86" speed="0.16" angle="90.00" x="767.59" y="136.47"/>
        <vehicle id="2_1" eclass="HBEFA3/PC_G_EU4" CO2="2646.44" CO="161.93" HC="0.80" NOx="1.21" PMx="0.07" fuel="1.14" electricity="0.00" noise="60.13" route="routeright" type="2" waiting="0.00" lane="right_1" pos="164.21" speed="0.19" angle="90.00" x="768.92" y="139.77"/>
        <vehicle id="2_2" eclass="HBEFA3/PC_G_EU4" CO2="2624.62" CO="163.04" HC="0.80" NOx="1.20" PMx="0.07" fuel="1.13" electricity="0.00" noise="58.14" route="routeright" type="2" waiting="0.20" lane="right_0" pos="278.03" speed="0.10" angle="90.00" x="880.46" y="136.47"/>
        <vehicle id="2_3" eclass="HBEFA3/PC_G_EU4" CO2="2638.47" CO="162.19" HC="0.80" NOx="1.21" PMx="0.07" fuel="1.13" electricity="0.00" noise="59.59" route="routeright" type="2" waiting="0.00" lane="right_1" pos="283.99" speed="0.16" angle="90.00" x="886.31" y="139.77"/>
        <vehicle id="2_4" eclass="HBEFA3/PC_G_EU4" CO2="2643.33" CO="162.02" HC="0.80" NOx="1.21" PMx="0.07" fuel="1.14" electricity="0.00" noise="59.93" route="routemerge" type="2" waiting="0.00" lane="merge_0" pos="1.83" speed="0.18" angle="45.00" x="331.61" y="70.69"/>
        <vehicle id="3_0" eclass="HBEFA3/PC_G_EU4" CO2="2651.22" CO="161.80" HC="0.80" NOx="1.21" PMx="0.07" fuel="1.14" electricity="0.00" noise="60.41" route="routecenter" type="3" waiting="0.00" lane="center_0" pos="33.12" speed="0.20" angle="90.00" x="432.82" y="136.47"/>
        <vehicle id="3_1" eclass="HBEFA3/PC_G_EU4" CO2="2651.22" CO="161.80" HC="0.80" NOx="1.21" PMx="0.07" fuel="1.14" electricity="0.00" noise="60.41" route="routecenter" type="3" waiting="0.00" lane="center_1" pos="29.18" speed="0.20" angle="90.00" x="428.86" y="139.77"/>
        <vehicle id="3_2" eclass="HBEFA3/PC_G_EU4" CO2="2635.62" CO="162.30" HC="0.80" NOx="1.21" PMx="0.07" fuel="1.13" electricity="0.00" noise="59.37" route="routecenter" type="3" waiting="0.00" lane="center_0" pos="142.55" speed="0.15" angle="90.00" x="542.74" y="136.47"/>
        <vehicle id="3_3" eclass="HBEFA3/PC_G_EU4" CO2="2651.22" CO="161.80" HC="0.80" NOx="1.21" PMx="0.07" fuel="1.14" electricity="0.00" noise="60.41" route="routecenter" type="3" waiting="0.00" lane="center_1" pos="146.25" speed="0.20" angle="90.00" x="546.46" y="139.77"/>
        <vehicle id="3_4" eclass="HBEFA3/PC_G_EU4" CO2="2651.22" CO="161.80" HC="0.80" NOx="1.21" PMx="0.07" fuel="1.14" electricity="0.00" noise="60.41" route="routeleft" type="3" waiting="0.00" lane="left_0" pos="69.31" speed="0.20" angle="90.00" x="167.47" y="136.47"/>
        <vehicle id="4_0" eclass="HBEFA3/PC_G_EU4" CO2="2651.22" CO="161.80" HC="0.80" NOx="1.21" PMx="0.07" fuel="1.14" electricity="0.00" noise="60.41" route="routeleft" type="4" waiting="0.00" lane="left_1" pos="68.88" speed="0.20" angle="90.00" x="167.05" y="139.77"/>
        <vehicle id="4_1" eclass="HBEFA3/PC_G_EU4" CO2="2651.22" CO="161.80" HC="0.80" NOx="1.21" PMx="0.07" fuel="1.14" electricity="0.00" noise="60.41" route="routeleft" type="4" waiting="0.00" lane="left_0" pos="181.57" speed="0.20" angle="90.00" x="276.74" y="136.47"/>
        <vehicle id="4_2" eclass="HBEFA3/PC_G_EU4" CO2="2627.39" CO="162.78" HC="0.80" NOx="1.20" PMx="0.07" fuel="1.13" electricity="0.00" noise="58.55" route="routeleft" type="4" waiting="0.00" lane="left_1" pos="182.60" speed="0.12" angle="90.00" x="277.74" y="139.77"/>
        <vehicle id="4_3" eclass="HBEFA3/PC_G_EU4" CO2="2651.22" CO="161.80" HC="0.80" NOx="1.21" PMx="0.07" fuel="1.14" electricity="0.00" noise="60.41" route="routediverge" type="4" waiting="0.00" lane="diverge_0" pos="4.67" speed="0.20" angle="135.19" x="609.53" y="129.56"/>
        <vehicle id="4_4" eclass="HBEFA3/PC_G_EU4" CO2="2651.19" CO="161.81" HC="0.80" NOx="1.21" PMx="0.07" fuel="1.14" electricity="0.00" noise="60.41" route="routediverge" type="4" waiting="0.00" lane="diverge_0" pos="129.87" speed="0.20" angle="135.00" x="693.32" y="45.76"/>
    </timestep>
    <timestep time="0.60">
        <vehicle id="1_0" eclass="HBEFA3/PC_G_EU4" CO2="2678.16" CO="158.88" HC="0.79" NOx="1.22" PMx="0.07" fuel="1.15" electricity="0.00" noise="60.48" route="routeinflow_highway" type="1" waiting="0.00" lane="inflow_highway_0" pos="1.91" speed="0.40" angle="90.00" x="1.91" y="136.47"/>
        <vehicle id="1_1" eclass="HBEFA3/PC_G_EU4" CO2="2662.10" CO="159.00" HC="0.79" NOx="1.21" PMx="0.06" fuel="1.14" electricity="0.00" noise="59.91" route="routeinflow_highway" type="1" waiting="0.00" lane="inflow_highway_1" pos="0.11" speed="0.37" angle="90.00" x="0.11" y="139.77"/>
        <vehicle id="1_2" eclass="HBEFA3/PC_G_EU4" CO2="2674.25" CO="159.31" HC="0.79" NOx="1.22" PMx="0.07" fuel="1.15" electricity="0.00" noise="60.48" route="routeinflow_merge" type="1" waiting="0.00" lane="inflow_merge_0" pos="13.92" speed="0.37" angle="45.00" x="269.59" y="8.67"/>
        <vehicle id="1_3" eclass="HBEFA3/PC_G_EU4" CO2="2654.16" CO="159.07" HC="0.79" NOx="1.21" PMx="0.06" fuel="1.14" electricity="0.00" noise="59.60" route="routeright" type="1" waiting="0.00" lane="right_0" pos="41.57" speed="0.36" angle="90.00" x="648.72" y="136.47"/>
        <vehicle id="1_4" eclass="HBEFA3/PC_G_EU4" CO2="2671.93" CO="159.28" HC="0.79" NOx="1.22" PMx="0.07" fuel="1.15" electricity="0.00" noise="60.38" route="routeright" type="1" waiting="0.00" lane="right_1" pos="44.41" speed="0.37" angle="90.00" x="651.50" y="139.77"/>
        <vehicle id="2_0" eclass="HBEFA3/PC_G_EU4" CO2="2673.28" CO="159.42" HC="0.79" NOx="1.22" PMx="0.07" fuel="1.15" electricity="0.00" noise="60.48" route="routeright" type="2" waiting="0.00" lane="right_0" pos="162.94" speed="0.36" angle="90.00" x="767.66" y="136.47"/>
        <vehicle id="2_1" eclass="HBEFA3/PC_G_EU4" CO2="2676.61" CO="159.06" HC="0.79" NOx="1.22" PMx="0.07" fuel="1.15" electricity="0.00" noise="60.49" route="routeright" type="2" waiting="0.00" lane="right_1" pos="164.29" speed="0.39" angle="90.00" x="768.99" y="139.77"/>
        <vehicle id="2_2" eclass="HBEFA3/PC_G_EU4" CO2="2656.96" CO="160.47" HC="0.79" NOx="1.21" PMx="0.07" fuel="1.14" electricity="0.00" noise="60.12" route="routeright" type="2" waiting="0.00" lane="right_0" pos="278.08" speed="0.28" angle="90.00" x="880.52" y="136.47"/>
        <vehicle id="2_3" eclass="HBEFA3/PC_G_EU4" CO2="2673.30" CO="159.41" HC="0.79" NOx="1.22" PMx="0.07" fuel="1.15" electricity="0.00" noise="60.48" route="routeright" type="2" waiting="0.00" lane="right_1" pos="284.06" speed="0.36" angle="90.00" x="886.38" y="139.77"/>
        <vehicle id="2_4" eclass="HBEFA3/PC_G_EU4" CO2="2671.88" CO="159.22" HC="0.79" NOx="1.22" PMx="0.07" fuel="1.15" electricity="0.00" noise="60.36" route="routemerge" type="2" waiting="0.00" lane="merge_0" pos="1.90" speed="0.37" angle="45.00" x="331.66" y="70.74"/>
        <vehicle id="3_0" eclass="HBEFA3/PC_G_EU4" CO2="2678.34" CO="158.88" HC="0.79" NOx="1.22" PMx="0.07" fuel="1.15" electricity="0.00" noise="60.49" route="routecenter" type="3" waiting="0.00" lane="center_0" pos="33.20" speed="0.40" angle="90.00" x="432.90" y="136.47"/>
        <vehicle id="3_1" eclass="HBEFA3/PC_G_EU4" CO2="2678.34" CO="158.88" HC="0.79" NOx="1.22" PMx="0.07" fuel="1.15" electricity="0.00" noise="60.49" route="routecenter" type="3" waiting="0.00" lane="center_1" pos="29.26" speed="0.40" angle="90.00" x="428.94" y="139.77"/>
        <vehicle id="3_2" eclass="HBEFA3/PC_G_EU4" CO2="2639.78" CO="159.98" HC="0.79" NOx="1.20" PMx="0.06" fuel="1.13" electricity="0.00" noise="59.07" route="routecenter" type="3" waiting="0.00" lane="center_0" pos="142.61" speed="0.29" angle="90.00" x="542.80" y="136.47"/>
        <vehicle id="3_3" eclass="HBEFA3/PC_G_EU4" CO2="2678.34" CO="158.88" HC="0.79" NOx="1.22" PMx="0.07" fuel="1.15" electricity="0.00" noise="60.49" route="routecenter" type="3" waiting="0.00" lane="center_1" pos="146.33" speed="0.40" angle="90.00" x="546.54" y="139.77"/>
        <vehicle id="3_4" eclass="HBEFA3/PC_G_EU4" CO2="2662.76" CO="158.99" HC="0.79" NOx="1.21" PMx="0.06" fuel="1.14" electricity="0.00" noise="59.93" route="routeleft" type="3" waiting="0.00" lane="left_0" pos="69.39" speed="0.38" angle="90.00" x="167.54" y="136.47"/>
        <vehicle id="4_0" eclass="HBEFA3/PC_G_EU4" CO2="2660.44" CO="159.01" HC="0.79" NOx="1.21" PMx="0.06" fuel="1.14" electricity="0.00" noise="59.84" route="routeleft" type="4" waiting="0.00" lane="left_1" pos="68.95" speed="0.37" angle="90.00" x="167.12" y="139.77"/>
        <vehicle id="4_1" eclass="HBEFA3/PC_G_EU4" CO2="2678.34" CO="158.88" HC="0.79" NOx="1.22" PMx="0.07" fuel="1.15" electricity="0.00" noise="60.49" route="routeleft" type="4" waiting="0.00" lane="left_0" pos="181.65" speed="0.40" angle="90.00" x="276.81" y="136.47"/>
        <vehicle id="4_2" eclass="HBEFA3/PC_G_EU4" CO2="2666.93" CO="160.10" HC="0.79" NOx="1.22" PMx="0.07" fuel="1.15" electricity="0.00" noise="60.46" route="routeleft" type="4" waiting="0.00" lane="left_1" pos="182.66" speed="0.32" angle="90.00" x="277.80" y="139.77"/>
        <vehicle id="4_3" eclass="HBEFA3/PC_G_EU4" CO2="2657.40" CO="159.04" HC="0.79" NOx="1.21" PMx="0.06" fuel="1.14" electricity="0.00" noise="59.73" route="routediverge" type="4" waiting="0.00" lane="diverge_0" pos="4.74" speed="0.37" angle="135.15" x="609.58" y="129.51"/>
        <vehicle id="4_4" eclass="HBEFA3/PC_G_EU4" CO2="2657.16" CO="159.04" HC="0.79" NOx="1.21" PMx="0.06" fuel="1.14" electricity="0.00" noise="59.72" route="routediverge" type="4" waiting="0.00" lane="diverge_0" pos="129.95" speed="0.37" angle="135.00" x="693.37" y="45.71"/>
    </timestep>
    <timestep time="0.80">
        <vehicle id="1_0" eclass="HBEFA3/PC_G_EU4" CO2="2704.22" CO="156.00" HC="0.77" NOx="1.23" PMx="0.06" fuel="1.16" electricity="0.00" noise="60.52" route="routeinflow_highway" type="1" waiting="0.00" lane="inflow_highway_0" pos="2.03" speed="0.60" angle="90.00" x="2.03" y="136.47"/>
        <vehicle id="1_1" eclass="HBEFA3/PC_G_EU4" CO2="2702.45" CO="156.37" HC="0.78" NOx="1.23" PMx="0.06" fuel="1.16" electricity="0.00" noise="60.56" route="routeinflow_highway" type="1" waiting="0.00" lane="inflow_highway_1" pos="0.23" speed="0.57" angle="90.00" x="0.23" y="139.77"/>
        <vehicle id="1_2" eclass="HBEFA3/PC_G_EU4" CO2="2668.65" CO="156.43" HC="0.77" NOx="1.21" PMx="0.06" fuel="1.15" electricity="0.00" noise="59.66" route="routeinflow_merge" type="1" waiting="0.00" lane="inflow_merge_0" pos="14.02" speed="0.53" angle="45.00" x="269.67" y="8.75"/>
        <vehicle id="1_3" eclass="HBEFA3/PC_G_EU4" CO2="2688.33" CO="156.56" HC="0.78" NOx="1.22" PMx="0.06" fuel="1.16" electricity="0.00" noise="60.23" route="routeright" type="1" waiting="0.00" lane="right_0" pos="41.68" speed="0.55" angle="90.00" x="648.83" y="136.47"/>
        <vehicle id="1_4" eclass="HBEFA3/PC_G_EU4" CO2="2701.80" CO="156.44" HC="0.78" NOx="1.23" PMx="0.06" fuel="1.16" electricity="0.00" noise="60.55" route="routeright" type="1" waiting="0.00" lane="right_1" pos="44.52" speed="0.57" angle="90.00" x="651.61" y="139.77"/>
        <vehicle id="2_0" eclass="HBEFA3/PC_G_EU4" CO2="2700.91" CO="156.53" HC="0.78" NOx="1.22" PMx="0.06" fuel="1.16" electricity="0.00" noise="60.55" route="routeright" type="2" waiting="0.00" lane="right_0" pos="163.05" speed="0.56" angle="90.00" x="767.77" y="136.47"/>
        <vehicle id="2_1" eclass="HBEFA3/PC_G_EU4" CO2="2663.30" CO="156.17" HC="0.77" NOx="1.21" PMx="0.06" fuel="1.14" electricity="0.00" noise="59.47" route="routeright" type="2" waiting="0.00" lane="right_1" pos="164.40" speed="0.54" angle="90.00" x="769.10" y="139.77"/>
        <vehicle id="2_2" eclass="HBEFA3/PC_G_EU4" CO2="2675.24" CO="157.71" HC="0.78" NOx="1.22" PMx="0.06" fuel="1.15" electricity="0.00" noise="60.08" route="routeright" type="2" waiting="0.00" lane="right_0" pos="278.18" speed="0.46" angle="90.00" x="880.61" y="136.47"/>
        <vehicle id="2_3" eclass="HBEFA3/PC_G_EU4" CO2="2700.94" CO="156.52" HC="0.78" NOx="1.22" PMx="0.06" fuel="1.16" electricity="0.00" noise="60.55" route="routeright" type="2" waiting="0.00" lane="right_1" pos="284.18" speed="0.56" angle="90.00" x="886.49" y="139.77"/>
        <vehicle id="2_4" eclass="HBEFA3/PC_G_EU4" CO2="2702.29" CO="156.39" HC="0.78" NOx="1.23" PMx="0.06" fuel="1.16" electricity="0.00" noise="60.56" route="routemerge" type="2" waiting="0.00" lane="merge_0" pos="2.01" speed="0.57" angle="45.00" x="331.73" y="70.81"/>
        <vehicle id="3_0" eclass="HBEFA3/PC_G_EU4" CO2="2699.82" CO="155.99" HC="0.77" NOx="1.22" PMx="0.06" fuel="1.16" electricity="0.00" noise="60.41" route="routecenter" type="3" waiting="0.00" lane="center_0" pos="33.32" speed="0.59" angle="90.00" x="433.02" y="136.47"/>
        <vehicle id="3_1" eclass="HBEFA3/PC_G_EU4" CO2="2706.10" CO="156.00" HC="0.77" NOx="1.23" PMx="0.06" fuel="1.16" electricity="0.00" noise="60.57" route="routecenter" type="3" waiting="0.00" lane="center_1" pos="29.38" speed="0.60" angle="90.00" x="429.06" y="139.77"/>
        <vehicle id="3_2" eclass="HBEFA3/PC_G_EU4" CO2="2690.86" CO="157.57" HC="0.78" NOx="1.22" PMx="0.06" fuel="1.16" electricity="0.00" noise="60.52" route="routecenter" type="3" waiting="0.00" lane="center_0" pos="142.71" speed="0.49" angle="90.00" x="542.90" y="136.47"/>
        <vehicle id="3_3" eclass="HBEFA3/PC_G_EU4" CO2="2706.10" CO="156.00" HC="0.77" NOx="1.23" PMx="0.06" fuel="1.16" electricity="0.00" noise="60.57" route="routecenter" type="3" waiting="0.00" lane="center_1" pos="146.45" speed="0.60" angle="90.00" x="546.66" y="139.77"/>
        <vehicle id="3_4" eclass="HBEFA3/PC_G_EU4" CO2="2702.61" CO="156.35" HC="0.78" NOx="1.23" PMx="0.06" fuel="1.16" electricity="0.00" noise="60.56" route="routeleft" type="3" waiting="0.00" lane="left_0" pos="69.50" speed="0.58" angle="90.00" x="167.65" y="136.47"/>
        <vehicle id="4_0" eclass="HBEFA3/PC_G_EU4" CO2="2688.46" CO="156.40" HC="0.78" NOx="1.22" PMx="0.06" fuel="1.16" electricity="0.00" noise="60.20" route="routeleft" type="4" waiting="0.00" lane="left_1" pos="69.06" speed="0.56" angle="90.00" x="167.23" y="139.77"/>
        <vehicle id="4_1" eclass="HBEFA3/PC_G_EU4" CO2="2706.10" CO="156.00" HC="0.77" NOx="1.23" PMx="0.06" fuel="1.16" electricity="0.00" noise="60.57" route="routeleft" type="4" waiting="0.00" lane="left_0" pos="181.77" speed="0.60" angle="90.00" x="276.93" y="136.47"/>
        <vehicle id="4_2" eclass="HBEFA3/PC_G_EU4" CO2="2694.43" CO="157.20" HC="0.78" NOx="1.22" PMx="0.06" fuel="1.16" electricity="0.00" noise="60.53" route="routeleft" type="4" waiting="0.00" lane="left_1" pos="182.77" speed="0.52" angle="90.00" x="277.90" y="139.77"/>
        <vehicle id="4_3" eclass="HBEFA3/PC_G_EU4" CO2="2673.90" CO="156.49" HC="0.78" NOx="1.21" PMx="0.06" fuel="1.15" electricity="0.00" noise="59.82" route="routediverge" type="4" waiting="0.00" lane="diverge_0" pos="4.85" speed="0.53" angle="135.09" x="609.65" y="129.44"/>
        <vehicle id="4_4" eclass="HBEFA3/PC_G_EU4" CO2="2701.25" CO="156.49" HC="0.78" NOx="1.22" PMx="0.06" fuel="1.16" electricity="0.00" noise="60.55" route="routediverge" type="4" waiting="0.00" lane="diverge_0" pos="130.06" speed="0.57" angle="135.00" x="693.45" y="45.64"/>
    </timestep>
    <timestep time="1.00">
        <vehicle id="1_0" eclass="HBEFA3/PC_G_EU4" CO2="2688.96" CO="152.95" HC="0.76" NOx="1.21" PMx="0.06" fuel="1.16" electricity="0.00" noise="59.75" route="routeinflow_highway" type="1" waiting="0.00" lane="inflow_highway_0" pos="2.18" speed="0.76" angle="90.00" x="2.18" y="136.47"/>