<?xml version="1.0" encoding="UTF-8"?>

<!-- generated on Mon Nov 19 20:55:09 2018 by SUMO gui Version b'v0_31_0-812-g1d4338ab80'
<?xml version="1.0" encoding="UTF-8"?>

<configuration xmlns:xsi="http://www.w3.org/2001/XMLSchema-instance" xsi:noNamespaceSchemaLocation="http://sumo.dlr.de/xsd/sumoConfiguration.xsd">

    <input>
        <net-file value="/Users/barryfan/flow/flow/scenarios/debug/cfg/merge-baseline_20181119-2055081542689708.405639.net.xml"/>
        <route-files value="/Users/barryfan/flow/flow/scenarios/debug/cfg/merge-baseline_20181119-2055081542689708.405639.rou.xml"/>
        <additional-files value="/Users/barryfan/flow/flow/scenarios/debug/cfg/merge-baseline_20181119-2055081542689708.405639.add.xml"/>
    </input>

    <output>
        <emission-output value="./data/merge-baseline_20181119-2055081542689708.405639-emission.xml"/>
    </output>

    <time>
        <begin value="0"/>
        <step-length value="0.2"/>
    </time>

    <processing>
        <time-to-teleport value="-1"/>
    </processing>

    <report>
        <no-step-log value="true"/>
    </report>

    <traci_server>
        <remote-port value="63379"/>
    </traci_server>

    <gui_only>
        <gui-settings-file value="/Users/barryfan/flow/flow/scenarios/debug/cfg/merge-baseline_20181119-2055081542689708.405639.gui.cfg"/>
        <tracker-interval value="0.2"/>
    </gui_only>

</configuration>
-->

<emission-export xmlns:xsi="http://www.w3.org/2001/XMLSchema-instance" xsi:noNamespaceSchemaLocation="http://sumo.dlr.de/xsd/emission_file.xsd">
    <timestep time="0.00">
        <vehicle id="1_0" eclass="HBEFA3/PC_G_EU4" CO2="2624.72" CO="164.78" HC="0.81" NOx="1.20" PMx="0.07" fuel="1.13" electricity="0.00" noise="55.94" route="routeleft" type="1" waiting="0.00" lane="left_0" pos="0.00" speed="0.00" angle="90.00" x="100.00" y="136.47"/>
        <vehicle id="1_1" eclass="HBEFA3/PC_G_EU4" CO2="2624.72" CO="164.78" HC="0.81" NOx="1.20" PMx="0.07" fuel="1.13" electricity="0.00" noise="55.94" route="routeleft" type="1" waiting="0.00" lane="left_1" pos="3.96" speed="0.00" angle="90.00" x="103.86" y="139.77"/>
        <vehicle id="1_2" eclass="HBEFA3/PC_G_EU4" CO2="2624.72" CO="164.78" HC="0.81" NOx="1.20" PMx="0.07" fuel="1.13" electricity="0.00" noise="55.94" route="routeleft" type="1" waiting="0.00" lane="left_0" pos="122.63" speed="0.00" angle="90.00" x="219.36" y="136.47"/>
        <vehicle id="1_3" eclass="HBEFA3/PC_G_EU4" CO2="2624.72" CO="164.78" HC="0.81" NOx="1.20" PMx="0.07" fuel="1.13" electricity="0.00" noise="55.94" route="routeleft" type="1" waiting="0.00" lane="left_1" pos="115.70" speed="0.00" angle="90.00" x="212.62" y="139.77"/>
        <vehicle id="1_4" eclass="HBEFA3/PC_G_EU4" CO2="2624.72" CO="164.78" HC="0.81" NOx="1.20" PMx="0.07" fuel="1.13" electricity="0.00" noise="55.94" route="routeleft" type="1" waiting="0.00" lane="left_0" pos="256.41" speed="0.00" angle="90.00" x="349.59" y="136.47"/>
        <vehicle id="2_0" eclass="HBEFA3/PC_G_EU4" CO2="2624.72" CO="164.78" HC="0.81" NOx="1.20" PMx="0.07" fuel="1.13" electricity="0.00" noise="55.94" route="routeleft" type="2" waiting="0.00" lane="left_1" pos="251.59" speed="0.00" angle="90.00" x="344.89" y="139.77"/>
        <vehicle id="2_1" eclass="HBEFA3/PC_G_EU4" CO2="2624.72" CO="164.78" HC="0.81" NOx="1.20" PMx="0.07" fuel="1.13" electricity="0.00" noise="55.94" route="routemerge" type="2" waiting="0.00" lane="merge_0" pos="62.62" speed="0.00" angle="45.00" x="369.99" y="109.08"/>
        <vehicle id="2_2" eclass="HBEFA3/PC_G_EU4" CO2="2624.72" CO="164.78" HC="0.81" NOx="1.20" PMx="0.07" fuel="1.13" electricity="0.00" noise="55.94" route="routecenter" type="2" waiting="0.00" lane="center_0" pos="84.94" speed="0.00" angle="90.00" x="484.87" y="136.47"/>
        <vehicle id="2_3" eclass="HBEFA3/PC_G_EU4" CO2="2624.72" CO="164.78" HC="0.81" NOx="1.20" PMx="0.07" fuel="1.13" electricity="0.00" noise="55.94" route="routecenter" type="2" waiting="0.00" lane="center_1" pos="86.74" speed="0.00" angle="90.00" x="486.68" y="139.77"/>
        <vehicle id="2_4" eclass="HBEFA3/PC_G_EU4" CO2="2624.72" CO="164.78" HC="0.81" NOx="1.20" PMx="0.07" fuel="1.13" electricity="0.00" noise="55.94" route="routeinflow_highway" type="2" waiting="0.00" lane="inflow_highway_0" pos="4.84" speed="0.00" angle="90.00" x="4.84" y="136.47"/>
        <vehicle id="3_0" eclass="HBEFA3/PC_G_EU4" CO2="2624.72" CO="164.78" HC="0.81" NOx="1.20" PMx="0.07" fuel="1.13" electricity="0.00" noise="55.94" route="routeinflow_highway" type="3" waiting="0.00" lane="inflow_highway_1" pos="0.00" speed="0.00" angle="90.00" x="0.00" y="139.77"/>
        <vehicle id="3_1" eclass="HBEFA3/PC_G_EU4" CO2="2624.72" CO="164.78" HC="0.81" NOx="1.20" PMx="0.07" fuel="1.13" electricity="0.00" noise="55.94" route="routeright" type="3" waiting="0.00" lane="right_0" pos="29.21" speed="0.00" angle="90.00" x="636.60" y="136.47"/>
        <vehicle id="3_2" eclass="HBEFA3/PC_G_EU4" CO2="2624.72" CO="164.78" HC="0.81" NOx="1.20" PMx="0.07" fuel="1.13" electricity="0.00" noise="55.94" route="routeright" type="3" waiting="0.00" lane="right_1" pos="35.98" speed="0.00" angle="90.00" x="643.24" y="139.77"/>
        <vehicle id="3_3" eclass="HBEFA3/PC_G_EU4" CO2="2624.72" CO="164.78" HC="0.81" NOx="1.20" PMx="0.07" fuel="1.13" electricity="0.00" noise="55.94" route="routeright" type="3" waiting="0.00" lane="right_0" pos="133.54" speed="0.00" angle="90.00" x="738.85" y="136.47"/>
        <vehicle id="3_4" eclass="HBEFA3/PC_G_EU4" CO2="2624.72" CO="164.78" HC="0.81" NOx="1.20" PMx="0.07" fuel="1.13" electricity="0.00" noise="55.94" route="routeright" type="3" waiting="0.00" lane="right_1" pos="144.59" speed="0.00" angle="90.00" x="749.69" y="139.77"/>
        <vehicle id="4_0" eclass="HBEFA3/PC_G_EU4" CO2="2624.72" CO="164.78" HC="0.81" NOx="1.20" PMx="0.07" fuel="1.13" electricity="0.00" noise="55.94" route="routeright" type="4" waiting="0.00" lane="right_0" pos="262.65" speed="0.00" angle="90.00" x="865.39" y="136.47"/>
        <vehicle id="4_1" eclass="HBEFA3/PC_G_EU4" CO2="2624.72" CO="164.78" HC="0.81" NOx="1.20" PMx="0.07" fuel="1.13" electricity="0.00" noise="55.94" route="routeright" type="4" waiting="0.00" lane="right_1" pos="274.20" speed="0.00" angle="90.00" x="876.71" y="139.77"/>
        <vehicle id="4_2" eclass="HBEFA3/PC_G_EU4" CO2="2624.72" CO="164.78" HC="0.81" NOx="1.20" PMx="0.07" fuel="1.13" electricity="0.00" noise="55.94" route="routeright" type="4" waiting="0.00" lane="right_0" pos="381.61" speed="0.00" angle="90.00" x="981.97" y="136.47"/>
        <vehicle id="4_3" eclass="HBEFA3/PC_G_EU4" CO2="2624.72" CO="164.78" HC="0.81" NOx="1.20" PMx="0.07" fuel="1.13" electricity="0.00" noise="55.94" route="routeright" type="4" waiting="0.00" lane="right_1" pos="378.54" speed="0.00" angle="90.00" x="978.96" y="139.77"/>
        <vehicle id="4_4" eclass="HBEFA3/PC_G_EU4" CO2="2624.72" CO="164.78" HC="0.81" NOx="1.20" PMx="0.07" fuel="1.13" electricity="0.00" noise="55.94" route="routediverge" type="4" waiting="0.00" lane="diverge_0" pos="101.51" speed="0.00" angle="135.00" x="674.34" y="64.74"/>
    </timestep>
    <timestep time="0.20">
        <vehicle id="1_0" eclass="HBEFA3/PC_G_EU4" CO2="2624.72" CO="164.78" HC="0.81" NOx="1.20" PMx="0.07" fuel="1.13" electricity="0.00" noise="55.94" route="routeleft" type="1" waiting="0.00" lane="left_0" pos="0.00" speed="0.00" angle="90.00" x="100.00" y="136.47"/>
        <vehicle id="1_1" eclass="HBEFA3/PC_G_EU4" CO2="2624.72" CO="164.78" HC="0.81" NOx="1.20" PMx="0.07" fuel="1.13" electricity="0.00" noise="55.94" route="routeleft" type="1" waiting="0.00" lane="left_1" pos="3.96" speed="0.00" angle="90.00" x="103.86" y="139.77"/>
        <vehicle id="1_2" eclass="HBEFA3/PC_G_EU4" CO2="2624.72" CO="164.78" HC="0.81" NOx="1.20" PMx="0.07" fuel="1.13" electricity="0.00" noise="55.94" route="routeleft" type="1" waiting="0.00" lane="left_0" pos="122.63" speed="0.00" angle="90.00" x="219.36" y="136.47"/>
        <vehicle id="1_3" eclass="HBEFA3/PC_G_EU4" CO2="2624.72" CO="164.78" HC="0.81" NOx="1.20" PMx="0.07" fuel="1.13" electricity="0.00" noise="55.94" route="routeleft" type="1" waiting="0.00" lane="left_1" pos="115.70" speed="0.00" angle="90.00" x="212.62" y="139.77"/>
        <vehicle id="1_4" eclass="HBEFA3/PC_G_EU4" CO2="2624.72" CO="164.78" HC="0.81" NOx="1.20" PMx="0.07" fuel="1.13" electricity="0.00" noise="55.94" route="routeleft" type="1" waiting="0.00" lane="left_0" pos="256.41" speed="0.00" angle="90.00" x="349.59" y="136.47"/>
        <vehicle id="2_0" eclass="HBEFA3/PC_G_EU4" CO2="2624.72" CO="164.78" HC="0.81" NOx="1.20" PMx="0.07" fuel="1.13" electricity="0.00" noise="55.94" route="routeleft" type="2" waiting="0.00" lane="left_1" pos="251.59" speed="0.00" angle="90.00" x="344.89" y="139.77"/>
        <vehicle id="2_1" eclass="HBEFA3/PC_G_EU4" CO2="2624.72" CO="164.78" HC="0.81" NOx="1.20" PMx="0.07" fuel="1.13" electricity="0.00" noise="55.94" route="routemerge" type="2" waiting="0.00" lane="merge_0" pos="62.62" speed="0.00" angle="45.00" x="369.99" y="109.08"/>
        <vehicle id="2_2" eclass="HBEFA3/PC_G_EU4" CO2="2624.72" CO="164.78" HC="0.81" NOx="1.20" PMx="0.07" fuel="1.13" electricity="0.00" noise="55.94" route="routecenter" type="2" waiting="0.00" lane="center_0" pos="84.94" speed="0.00" angle="90.00" x="484.87" y="136.47"/>
        <vehicle id="2_3" eclass="HBEFA3/PC_G_EU4" CO2="2624.72" CO="164.78" HC="0.81" NOx="1.20" PMx="0.07" fuel="1.13" electricity="0.00" noise="55.94" route="routecenter" type="2" waiting="0.00" lane="center_1" pos="86.74" speed="0.00" angle="90.00" x="486.68" y="139.77"/>
        <vehicle id="2_4" eclass="HBEFA3/PC_G_EU4" CO2="2624.72" CO="164.78" HC="0.81" NOx="1.20" PMx="0.07" fuel="1.13" electricity="0.00" noise="55.94" route="routeinflow_highway" type="2" waiting="0.00" lane="inflow_highway_0" pos="4.84" speed="0.00" angle="90.00" x="4.84" y="136.47"/>
        <vehicle id="3_0" eclass="HBEFA3/PC_G_EU4" CO2="2624.72" CO="164.78" HC="0.81" NOx="1.20" PMx="0.07" fuel="1.13" electricity="0.00" noise="55.94" route="routeinflow_highway" type="3" waiting="0.00" lane="inflow_highway_1" pos="0.00" speed="0.00" angle="90.00" x="0.00" y="139.77"/>
        <vehicle id="3_1" eclass="HBEFA3/PC_G_EU4" CO2="2624.72" CO="164.78" HC="0.81" NOx="1.20" PMx="0.07" fuel="1.13" electricity="0.00" noise="55.94" route="routeright" type="3" waiting="0.00" lane="right_0" pos="29.21" speed="0.00" angle="90.00" x="636.60" y="136.47"/>
        <vehicle id="3_2" eclass="HBEFA3/PC_G_EU4" CO2="2624.72" CO="164.78" HC="0.81" NOx="1.20" PMx="0.07" fuel="1.13" electricity="0.00" noise="55.94" route="routeright" type="3" waiting="0.00" lane="right_1" pos="35.98" speed="0.00" angle="90.00" x="643.24" y="139.77"/>
        <vehicle id="3_3" eclass="HBEFA3/PC_G_EU4" CO2="2624.72" CO="164.78" HC="0.81" NOx="1.20" PMx="0.07" fuel="1.13" electricity="0.00" noise="55.94" route="routeright" type="3" waiting="0.00" lane="right_0" pos="133.54" speed="0.00" angle="90.00" x="738.85" y="136.47"/>
        <vehicle id="3_4" eclass="HBEFA3/PC_G_EU4" CO2="2624.72" CO="164.78" HC="0.81" NOx="1.20" PMx="0.07" fuel="1.13" electricity="0.00" noise="55.94" route="routeright" type="3" waiting="0.00" lane="right_1" pos="144.59" speed="0.00" angle="90.00" x="749.69" y="139.77"/>
        <vehicle id="4_0" eclass="HBEFA3/PC_G_EU4" CO2="2624.72" CO="164.78" HC="0.81" NOx="1.20" PMx="0.07" fuel="1.13" electricity="0.00" noise="55.94" route="routeright" type="4" waiting="0.00" lane="right_0" pos="262.65" speed="0.00" angle="90.00" x="865.39" y="136.47"/>
        <vehicle id="4_1" eclass="HBEFA3/PC_G_EU4" CO2="2624.72" CO="164.78" HC="0.81" NOx="1.20" PMx="0.07" fuel="1.13" electricity="0.00" noise="55.94" route="routeright" type="4" waiting="0.00" lane="right_1" pos="274.20" speed="0.00" angle="90.00" x="876.71" y="139.77"/>
        <vehicle id="4_2" eclass="HBEFA3/PC_G_EU4" CO2="2624.72" CO="164.78" HC="0.81" NOx="1.20" PMx="0.07" fuel="1.13" electricity="0.00" noise="55.94" route="routeright" type="4" waiting="0.00" lane="right_0" pos="381.61" speed="0.00" angle="90.00" x="981.97" y="136.47"/>
        <vehicle id="4_3" eclass="HBEFA3/PC_G_EU4" CO2="2624.72" CO="164.78" HC="0.81" NOx="1.20" PMx="0.07" fuel="1.13" electricity="0.00" noise="55.94" route="routeright" type="4" waiting="0.00" lane="right_1" pos="378.54" speed="0.00" angle="90.00" x="978.96" y="139.77"/>
        <vehicle id="4_4" eclass="HBEFA3/PC_G_EU4" CO2="2624.72" CO="164.78" HC="0.81" NOx="1.20" PMx="0.07" fuel="1.13" electricity="0.00" noise="55.94" route="routediverge" type="4" waiting="0.00" lane="diverge_0" pos="101.51" speed="0.00" angle="135.00" x="674.34" y="64.74"/>
    </timestep>
    <timestep time="0.40">
        <vehicle id="1_0" eclass="HBEFA3/PC_G_EU4" CO2="2639.51" CO="162.15" HC="0.80" NOx="1.21" PMx="0.07" fuel="1.13" electricity="0.00" noise="59.67" route="routeleft" type="1" waiting="0.00" lane="left_0" pos="0.03" speed="0.17" angle="90.00" x="100.03" y="136.47"/>
        <vehicle id="1_1" eclass="HBEFA3/PC_G_EU4" CO2="2651.22" CO="161.80" HC="0.80" NOx="1.21" PMx="0.07" fuel="1.14" electricity="0.00" noise="60.41" route="routeleft" type="1" waiting="0.00" lane="left_1" pos="4.00" speed="0.20" angle="90.00" x="103.90" y="139.77"/>
        <vehicle id="1_2" eclass="HBEFA3/PC_G_EU4" CO2="2644.63" CO="161.98" HC="0.80" NOx="1.21" PMx="0.07" fuel="1.14" electricity="0.00" noise="60.02" route="routeleft" type="1" waiting="0.00" lane="left_0" pos="122.66" speed="0.18" angle="90.00" x="219.40" y="136.47"/>
        <vehicle id="1_3" eclass="HBEFA3/PC_G_EU4" CO2="2633.64" CO="162.40" HC="0.80" NOx="1.20" PMx="0.07" fuel="1.13" electricity="0.00" noise="59.20" route="routeleft" type="1" waiting="0.00" lane="left_1" pos="115.73" speed="0.15" angle="90.00" x="212.65" y="139.77"/>
        <vehicle id="1_4" eclass="HBEFA3/PC_G_EU4" CO2="2651.22" CO="161.80" HC="0.80" NOx="1.21" PMx="0.07" fuel="1.14" electricity="0.00" noise="60.41" route="routeleft" type="1" waiting="0.00" lane="left_0" pos="256.45" speed="0.20" angle="90.00" x="349.63" y="136.47"/>
        <vehicle id="2_0" eclass="HBEFA3/PC_G_EU4" CO2="2636.03" CO="162.29" HC="0.80" NOx="1.21" PMx="0.07" fuel="1.13" electricity="0.00" noise="59.40" route="routeleft" type="2" waiting="0.00" lane="left_1" pos="251.62" speed="0.15" angle="90.00" x="344.92" y="139.77"/>
        <vehicle id="2_1" eclass="HBEFA3/PC_G_EU4" CO2="2647.62" CO="161.90" HC="0.80" NOx="1.21" PMx="0.07" fuel="1.14" electricity="0.00" noise="60.20" route="routemerge" type="2" waiting="0.00" lane="merge_0" pos="62.66" speed="0.19" angle="45.00" x="370.02" y="109.11"/>
        <vehicle id="2_2" eclass="HBEFA3/PC_G_EU4" CO2="2651.22" CO="161.80" HC="0.80" NOx="1.21" PMx="0.07" fuel="1.14" electricity="0.00" noise="60.41" route="routecenter" type="2" waiting="0.00" lane="center_0" pos="84.98" speed="0.20" angle="90.00" x="484.91" y="136.47"/>
        <vehicle id="2_3" eclass="HBEFA3/PC_G_EU4" CO2="2651.22" CO="161.80" HC="0.80" NOx="1.21" PMx="0.07" fuel="1.14" electricity="0.00" noise="60.41" route="routecenter" type="2" waiting="0.00" lane="center_1" pos="86.78" speed="0.20" angle="90.00" x="486.72" y="139.77"/>
        <vehicle id="2_4" eclass="HBEFA3/PC_G_EU4" CO2="2651.22" CO="161.80" HC="0.80" NOx="1.21" PMx="0.07" fuel="1.14" electricity="0.00" noise="60.41" route="!2_4!var#1" type="2" waiting="0.00" lane="inflow_highway_0" pos="4.88" speed="0.20" angle="90.00" x="4.88" y="136.47"/>
        <vehicle id="3_0" eclass="HBEFA3/PC_G_EU4" CO2="2641.25" CO="162.09" HC="0.80" NOx="1.21" PMx="0.07" fuel="1.14" electricity="0.00" noise="59.79" route="routeinflow_highway" type="3" waiting="0.00" lane="inflow_highway_1" pos="0.03" speed="0.17" angle="90.00" x="0.03" y="139.77"/>
        <vehicle id="3_1" eclass="HBEFA3/PC_G_EU4" CO2="2642.25" CO="162.05" HC="0.80" NOx="1.21" PMx="0.07" fuel="1.14" electricity="0.00" noise="59.86" route="routeright" type="3" waiting="0.00" lane="right_0" pos="29.24" speed="0.18" angle="90.00" x="636.64" y="136.47"/>
        <vehicle id="3_2" eclass="HBEFA3/PC_G_EU4" CO2="2643.11" CO="162.03" HC="0.80" NOx="1.21" PMx="0.07" fuel="1.14" electricity="0.00" noise="59.92" route="routeright" type="3" waiting="0.00" lane="right_1" pos="36.01" speed="0.18" angle="90.00" x="643.27" y="139.77"/>
        <vehicle id="3_3" eclass="HBEFA3/PC_G_EU4" CO2="2624.08" CO="163.11" HC="0.80" NOx="1.20" PMx="0.07" fuel="1.13" electricity="0.00" noise="58.04" route="routeright" type="3" waiting="0.20" lane="right_0" pos="133.55" speed="0.09" angle="90.00" x="738.87" y="136.47"/>
        <vehicle id="3_4" eclass="HBEFA3/PC_G_EU4" CO2="2651.22" CO="161.80" HC="0.80" NOx="1.21" PMx="0.07" fuel="1.14" electricity="0.00" noise="60.41" route="routeright" type="3" waiting="0.00" lane="right_1" pos="144.63" speed="0.20" angle="90.00" x="749.73" y="139.77"/>
        <vehicle id="4_0" eclass="HBEFA3/PC_G_EU4" CO2="2630.17" CO="162.59" HC="0.80" NOx="1.20" PMx="0.07" fuel="1.13" electricity="0.00" noise="58.86" route="routeright" type="4" waiting="0.00" lane="right_0" pos="262.67" speed="0.13" angle="90.00" x="865.41" y="136.47"/>
        <vehicle id="4_1" eclass="HBEFA3/PC_G_EU4" CO2="2651.22" CO="161.80" HC="0.80" NOx="1.21" PMx="0.07" fuel="1.14" electricity="0.00" noise="60.41" route="routeright" type="4" waiting="0.00" lane="right_1" pos="274.24" speed="0.20" angle="90.00" x="876.75" y="139.77"/>
        <vehicle id="4_2" eclass="HBEFA3/PC_G_EU4" CO2="2651.22" CO="161.80" HC="0.80" NOx="1.21" PMx="0.07" fuel="1.14" electricity="0.00" noise="60.41" route="routeright" type="4" waiting="0.00" lane="right_0" pos="381.65" speed="0.20" angle="90.00" x="982.01" y="136.47"/>
        <vehicle id="4_3" eclass="HBEFA3/PC_G_EU4" CO2="2651.22" CO="161.80" HC="0.80" NOx="1.21" PMx="0.07" fuel="1.14" electricity="0.00" noise="60.41" route="routeright" type="4" waiting="0.00" lane="right_1" pos="378.58" speed="0.20" angle="90.00" x="979.00" y="139.77"/>
        <vehicle id="4_4" eclass="HBEFA3/PC_G_EU4" CO2="2642.32" CO="162.05" HC="0.80" NOx="1.21" PMx="0.07" fuel="1.14" electricity="0.00" noise="59.87" route="routediverge" type="4" waiting="0.00" lane="diverge_0" pos="101.55" speed="0.18" angle="135.00" x="674.37" y="64.72"/>
    </timestep>
    <timestep time="0.60">
        <vehicle id="1_0" eclass="HBEFA3/PC_G_EU4" CO2="2670.89" CO="159.39" HC="0.79" NOx="1.22" PMx="0.07" fuel="1.15" electricity="0.00" noise="60.37" route="routeleft" type="1" waiting="0.00" lane="left_0" pos="0.11" speed="0.36" angle="90.00" x="100.10" y="136.47"/>
        <vehicle id="1_1" eclass="HBEFA3/PC_G_EU4" CO2="2637.00" CO="159.30" HC="0.79" NOx="1.20" PMx="0.06" fuel="1.13" electricity="0.00" noise="58.84" route="routeleft" type="1" waiting="0.00" lane="left_1" pos="4.07" speed="0.33" angle="90.00" x="103.96" y="139.77"/>
        <vehicle id="1_2" eclass="HBEFA3/PC_G_EU4" CO2="2675.91" CO="159.14" HC="0.79" NOx="1.22" PMx="0.07" fuel="1.15" electricity="0.00" noise="60.48" route="routeleft" type="1" waiting="0.00" lane="left_0" pos="122.74" speed="0.38" angle="90.00" x="219.47" y="136.47"/>
        <vehicle id="1_3" eclass="HBEFA3/PC_G_EU4" CO2="2670.91" CO="159.67" HC="0.79" NOx="1.22" PMx="0.07" fuel="1.15" electricity="0.00" noise="60.47" route="routeleft" type="1" waiting="0.00" lane="left_1" pos="115.80" speed="0.35" angle="90.00" x="212.72" y="139.77"/>
        <vehicle id="1_4" eclass="HBEFA3/PC_G_EU4" CO2="2678.34" CO="158.88" HC="0.79" NOx="1.22" PMx="0.07" fuel="1.15" electricity="0.00" noise="60.49" route="routeleft" type="1" waiting="0.00" lane="left_0" pos="256.53" speed="0.40" angle="90.00" x="349.71" y="136.47"/>
        <vehicle id="2_0" eclass="HBEFA3/PC_G_EU4" CO2="2672.15" CO="159.54" HC="0.79" NOx="1.22" PMx="0.07" fuel="1.15" electricity="0.00" noise="60.47" route="routeleft" type="2" waiting="0.00" lane="left_1" pos="251.69" speed="0.35" angle="90.00" x="344.99" y="139.77"/>
        <vehicle id="2_1" eclass="HBEFA3/PC_G_EU4" CO2="2677.05" CO="159.02" HC="0.79" NOx="1.22" PMx="0.07" fuel="1.15" electricity="0.00" noise="60.49" route="routemerge" type="2" waiting="0.00" lane="merge_0" pos="62.74" speed="0.39" angle="45.00" x="370.07" y="109.15"/>
        <vehicle id="2_2" eclass="HBEFA3/PC_G_EU4" CO2="2678.34" CO="158.88" HC="0.79" NOx="1.22" PMx="0.07" fuel="1.15" electricity="0.00" noise="60.49" route="routecenter" type="2" waiting="0.00" lane="center_0" pos="85.06" speed="0.40" angle="90.00" x="484.99" y="136.47"/>
        <vehicle id="2_3" eclass="HBEFA3/PC_G_EU4" CO2="2678.34" CO="158.88" HC="0.79" NOx="1.22" PMx="0.07" fuel="1.15" electricity="0.00" noise="60.49" route="routecenter" type="2" waiting="0.00" lane="center_1" pos="86.86" speed="0.40" angle="90.00" x="486.80" y="139.77"/>
        <vehicle id="2_4" eclass="HBEFA3/PC_G_EU4" CO2="2667.20" CO="158.95" HC="0.79" NOx="1.21" PMx="0.06" fuel="1.15" electricity="0.00" noise="60.10" route="!2_4!var#1" type="2" waiting="0.00" lane="inflow_highway_0" pos="4.95" speed="0.38" angle="90.00" x="4.95" y="136.47"/>
        <vehicle id="3_0" eclass="HBEFA3/PC_G_EU4" CO2="2655.65" CO="159.46" HC="0.79" NOx="1.21" PMx="0.06" fuel="1.14" electricity="0.00" noise="59.75" route="routeinflow_highway" type="3" waiting="0.00" lane="inflow_highway_1" pos="0.10" speed="0.34" angle="90.00" x="0.10" y="139.77"/>
        <vehicle id="3_1" eclass="HBEFA3/PC_G_EU4" CO2="2644.91" CO="159.56" HC="0.79" NOx="1.21" PMx="0.06" fuel="1.14" electricity="0.00" noise="59.27" route="routeright" type="3" waiting="0.00" lane="right_0" pos="29.30" speed="0.32" angle="90.00" x="636.70" y="136.47"/>
        <vehicle id="3_2" eclass="HBEFA3/PC_G_EU4" CO2="2675.30" CO="159.20" HC="0.79" NOx="1.22" PMx="0.07" fuel="1.15" electricity="0.00" noise="60.48" route="routeright" type="3" waiting="0.00" lane="right_1" pos="36.09" speed="0.38" angle="90.00" x="643.35" y="139.77"/>
        <vehicle id="3_3" eclass="HBEFA3/PC_G_EU4" CO2="2663.85" CO="160.43" HC="0.79" NOx="1.21" PMx="0.07" fuel="1.15" electricity="0.00" noise="60.45" route="routeright" type="3" waiting="0.00" lane="right_0" pos="133.61" speed="0.29" angle="90.00" x="738.93" y="136.47"/>
        <vehicle id="3_4" eclass="HBEFA3/PC_G_EU4" CO2="2677.69" CO="158.88" HC="0.79" NOx="1.22" PMx="0.07" fuel="1.15" electricity="0.00" noise="60.47" route="routeright" type="3" waiting="0.00" lane="right_1" pos="144.71" speed="0.40" angle="90.00" x="749.80" y="139.77"/>
        <vehicle id="4_0" eclass="HBEFA3/PC_G_EU4" CO2="2641.97" CO="160.28" HC="0.79" NOx="1.20" PMx="0.06" fuel="1.14" electricity="0.00" noise="59.25" route="routeright" type="4" waiting="0.00" lane="right_0" pos="262.73" speed="0.28" angle="90.00" x="865.47" y="136.47"/>
        <vehicle id="4_1" eclass="HBEFA3/PC_G_EU4" CO2="2670.36" CO="158.93" HC="0.79" NOx="1.22" PMx="0.07" fuel="1.15" electricity="0.00" noise="60.21" route="routeright" type="4" waiting="0.00" lane="right_1" pos="274.32" speed="0.39" angle="90.00" x="876.83" y="139.77"/>
        <vehicle id="4_2" eclass="HBEFA3/PC_G_EU4" CO2="2678.34" CO="158.88" HC="0.79" NOx="1.22" PMx="0.07" fuel="1.15" electricity="0.00" noise="60.49" route="routeright" type="4" waiting="0.00" lane="right_0" pos="381.73" speed="0.40" angle="90.00" x="982.09" y="136.47"/>
        <vehicle id="4_3" eclass="HBEFA3/PC_G_EU4" CO2="2670.19" CO="158.93" HC="0.79" NOx="1.22" PMx="0.06" fuel="1.15" electricity="0.00" noise="60.21" route="routeright" type="4" waiting="0.00" lane="right_1" pos="378.65" speed="0.39" angle="90.00" x="979.08" y="139.77"/>
        <vehicle id="4_4" eclass="HBEFA3/PC_G_EU4" CO2="2674.98" CO="159.23" HC="0.79" NOx="1.22" PMx="0.07" fuel="1.15" electricity="0.00" noise="60.48" route="routediverge" type="4" waiting="0.00" lane="diverge_0" pos="101.62" speed="0.38" angle="135.00" x="674.42" y="64.67"/>
    </timestep>
    <timestep time="0.80">
        <vehicle id="1_0" eclass="HBEFA3/PC_G_EU4" CO2="2696.07" CO="156.54" HC="0.78" NOx="1.22" PMx="0.06" fuel="1.16" electricity="0.00" noise="60.43" route="routeleft" type="1" waiting="0.00" lane="left_0" pos="0.22" speed="0.56" angle="90.00" x="100.21" y="136.47"/>
        <vehicle id="1_1" eclass="HBEFA3/PC_G_EU4" CO2="2695.82" CO="157.05" HC="0.78" NOx="1.22" PMx="0.06" fuel="1.16" electricity="0.00" noise="60.54" route="routeleft" type="1" waiting="0.00" lane="left_1" pos="4.17" speed="0.53" angle="90.00" x="104.06" y="139.77"/>
        <vehicle id="1_2" eclass="HBEFA3/PC_G_EU4" CO2="2691.56" CO="156.24" HC="0.77" NOx="1.22" PMx="0.06" fuel="1.16" electricity="0.00" noise="60.25" route="routeleft" type="1" waiting="0.00" lane="left_0" pos="122.85" speed="0.57" angle="90.00" x="219.59" y="136.47"/>
        <vehicle id="1_3" eclass="HBEFA3/PC_G_EU4" CO2="2695.60" CO="156.78" HC="0.78" NOx="1.22" PMx="0.06" fuel="1.16" electricity="0.00" noise="60.47" route="routeleft" type="1" waiting="0.00" lane="left_1" pos="115.91" speed="0.54" angle="90.00" x="212.82" y="139.77"/>
        <vehicle id="1_4" eclass="HBEFA3/PC_G_EU4" CO2="2706.10" CO="156.00" HC="0.77" NOx="1.23" PMx="0.06" fuel="1.16" electricity="0.00" noise="60.57" route="routeleft" type="1" waiting="0.00" lane="left_0" pos="256.65" speed="0.60" angle="90.00" x="349.83" y="136.47"/>
        <vehicle id="2_0" eclass="HBEFA3/PC_G_EU4" CO2="2699.76" CO="156.65" HC="0.78" NOx="1.22" PMx="0.06" fuel="1.16" electricity="0.00" noise="60.55" route="routeleft" type="2" waiting="0.00" lane="left_1" pos="251.80" speed="0.55" angle="90.00" x="345.10" y="139.77"/>
        <vehicle id="2_1" eclass="HBEFA3/PC_G_EU4" CO2="2664.44" CO="156.12" HC="0.77" NOx="1.21" PMx="0.06" fuel="1.15" electricity="0.00" noise="59.50" route="routemerge" type="2" waiting="0.00" lane="merge_0" pos="62.85" speed="0.54" angle="45.00" x="370.14" y="109.22"/>
        <vehicle id="2_2" eclass="HBEFA3/PC_G_EU4" CO2="2706.10" CO="156.00" HC="0.77" NOx="1.23" PMx="0.06" fuel="1.16" electricity="0.00" noise="60.57" route="routecenter" type="2" waiting="0.00" lane="center_0" pos="85.18" speed="0.60" angle="90.00" x="485.11" y="136.47"/>
        <vehicle id="2_3" eclass="HBEFA3/PC_G_EU4" CO2="2706.10" CO="156.00" HC="0.77" NOx="1.23" PMx="0.06" fuel="1.16" electricity="0.00" noise="60.57" route="routecenter" type="2" waiting="0.00" lane="center_1" pos="86.98" speed="0.60" angle="90.00" x="486.92" y="139.77"/>
        <vehicle id="2_4" eclass="HBEFA3/PC_G_EU4" CO2="2690.08" CO="156.23" HC="0.77" NOx="1.22" PMx="0.06" fuel="1.16" electricity="0.00" noise="60.21" route="!2_4!var#1" type="2" waiting="0.00" lane="inflow_highway_0" pos="5.07" speed="0.57" angle="90.00" x="5.07" y="136.47"/>
        <vehicle id="3_0" eclass="HBEFA3/PC_G_EU4" CO2="2667.40" CO="156.90" HC="0.78" NOx="1.21" PMx="0.06" fuel="1.15" electricity="0.00" noise="59.69" route="routeinflow_highway" type="3" waiting="0.00" lane="inflow_highway_1" pos="0.20" speed="0.50" angle="90.00" x="0.20" y="139.77"/>
        <vehicle id="3_1" eclass="HBEFA3/PC_G_EU4" CO2="2671.16" CO="157.17" HC="0.78" NOx="1.21" PMx="0.06" fuel="1.15" electricity="0.00" noise="59.85" route="routeright" type="3" waiting="0.00" lane="right_0" pos="29.40" speed="0.49" angle="90.00" x="636.80" y="136.47"/>
        <vehicle id="3_2" eclass="HBEFA3/PC_G_EU4" CO2="2702.99" CO="156.32" HC="0.77" NOx="1.23" PMx="0.06" fuel="1.16" electricity="0.00" noise="60.56" route="routeright" type="3" waiting="0.00" lane="right_1" pos="36.20" speed="0.58" angle="90.00" x="643.46" y="139.77"/>
        <vehicle id="3_3" eclass="HBEFA3/PC_G_EU4" CO2="2640.89" CO="157.76" HC="0.78" NOx="1.20" PMx="0.06" fuel="1.14" electricity="0.00" noise="58.88" route="routeright" type="3" waiting="0.00" lane="right_0" pos="133.70" speed="0.42" angle="90.00" x="739.01" y="136.47"/>
        <vehicle id="3_4" eclass="HBEFA3/PC_G_EU4" CO2="2705.96" CO="156.01" HC="0.77" NOx="1.23" PMx="0.06" fuel="1.16" electricity="0.00" noise="60.57" route="routeright" type="3" waiting="0.00" lane="right_1" pos="144.83" speed="0.60" angle="90.00" x="749.92" y="139.77"/>
        <vehicle id="4_0" eclass="HBEFA3/PC_G_EU4" CO2="2652.09" CO="157.94" HC="0.78" NOx="1.21" PMx="0.06" fuel="1.14" electricity="0.00" noise="59.32" route="routeright" type="4" waiting="0.00" lane="right_0" pos="262.81" speed="0.42" angle="90.00" x="865.55" y="136.47"/>
        <vehicle id="4_1" eclass="HBEFA3/PC_G_EU4" CO2="2704.35" CO="156.18" HC="0.77" NOx="1.23" PMx="0.06" fuel="1.16" electricity="0.00" noise="60.56" route="routeright" type="4" waiting="0.00" lane="right_1" pos="274.44" speed="0.59" angle="90.00" x="876.94" y="139.77"/>
        <vehicle id="4_2" eclass="HBEFA3/PC_G_EU4" CO2="2706.10" CO="156.00" HC="0.77" NOx="1.23" PMx="0.06" fuel="1.16" electricity="0.00" noise="60.57" route="routeright" type="4" waiting="0.00" lane="right_0" pos="381.85" speed="0.60" angle="90.00" x="982.21" y="136.47"/>
        <vehicle id="4_3" eclass="HBEFA3/PC_G_EU4" CO2="2696.70" CO="156.17" HC="0.77" NOx="1.22" PMx="0.06" fuel="1.16" electricity="0.00" noise="60.37" route="routeright" type="4" waiting="0.00" lane="right_1" pos="378.77" speed="0.58" angle="90.00" x="979.19" y="139.77"/>
        <vehicle id="4_4" eclass="HBEFA3/PC_G_EU4" CO2="2702.66" CO="156.35" HC="0.78" NOx="1.23" PMx="0.06" fuel="1.16" electricity="0.00" noise="60.56" route="routediverge" type="4" waiting="0.00" lane="diverge_0" pos="101.74" speed="0.58" angle="135.00" x="674.49" y="64.59"/>
    </timestep>
    <timestep time="1.00">
        <vehicle id="1_0" eclass="HBEFA3/PC_G_EU4" CO2="2728.24" CO="153.78" HC="0.76" NOx="1.23" PMx="0.06" fuel="1.17" electricity="0.00" noise="60.63" route="routeleft" type="1" waiting="0.00" lane="left_0" pos="0.37" speed="0.76" angle="90.00" x="100.36" y="136.47"/>
        <vehicle id="1_1" eclass="HBEFA3/PC_G_EU4" CO2="2665.62" CO="153.98" HC="0.76" NOx="1.21" PMx="0.06" fuel="1.15" electricity="0.00" noise="59.33" route="routeleft" type="1" waiting="0.00" lane="left_1" pos="4.31" speed="0.67" angle="90.00" x="104.19" y="139.77"/>