<?xml version="1.0" encoding="UTF-8"?>

<!-- generated on Mon Nov 19 20:32:22 2018 by SUMO gui Version b'v0_31_0-812-g1d4338ab80'
<?xml version="1.0" encoding="UTF-8"?>

<configuration xmlns:xsi="http://www.w3.org/2001/XMLSchema-instance" xsi:noNamespaceSchemaLocation="http://sumo.dlr.de/xsd/sumoConfiguration.xsd">

    <input>
        <net-file value="/Users/barryfan/flow/flow/scenarios/debug/cfg/merge-baseline_20181119-2032211542688341.075912.net.xml"/>
        <route-files value="/Users/barryfan/flow/flow/scenarios/debug/cfg/merge-baseline_20181119-2032211542688341.075912.rou.xml"/>
        <additional-files value="/Users/barryfan/flow/flow/scenarios/debug/cfg/merge-baseline_20181119-2032211542688341.075912.add.xml"/>
    </input>

    <output>
        <emission-output value="./data/merge-baseline_20181119-2032211542688341.075912-emission.xml"/>
    </output>

    <time>
        <begin value="0"/>
        <step-length value="0.2"/>
    </time>

    <processing>
        <time-to-teleport value="-1"/>
    </processing>

    <report>
        <no-step-log value="true"/>
    </report>

    <traci_server>
        <remote-port value="63254"/>
    </traci_server>

    <gui_only>
        <gui-settings-file value="/Users/barryfan/flow/flow/scenarios/debug/cfg/merge-baseline_20181119-2032211542688341.075912.gui.cfg"/>
        <tracker-interval value="0.2"/>
    </gui_only>

</configuration>
-->

<emission-export xmlns:xsi="http://www.w3.org/2001/XMLSchema-instance" xsi:noNamespaceSchemaLocation="http://sumo.dlr.de/xsd/emission_file.xsd">
    <timestep time="0.00">
        <vehicle id="1_0" eclass="HBEFA3/PC_G_EU4" CO2="2624.72" CO="164.78" HC="0.81" NOx="1.20" PMx="0.07" fuel="1.13" electricity="0.00" noise="55.94" route="routeright" type="1" waiting="0.00" lane="right_0" pos="13.27" speed="0.00" angle="90.00" x="620.98" y="136.47"/>
        <vehicle id="1_1" eclass="HBEFA3/PC_G_EU4" CO2="2624.72" CO="164.78" HC="0.81" NOx="1.20" PMx="0.07" fuel="1.13" electricity="0.00" noise="55.94" route="routeright" type="1" waiting="0.00" lane="right_1" pos="9.23" speed="0.00" angle="90.00" x="617.03" y="139.77"/>
        <vehicle id="1_2" eclass="HBEFA3/PC_G_EU4" CO2="2624.72" CO="164.78" HC="0.81" NOx="1.20" PMx="0.07" fuel="1.13" electricity="0.00" noise="55.94" route="routeright" type="1" waiting="0.00" lane="right_0" pos="131.02" speed="0.00" angle="90.00" x="736.38" y="136.47"/>
        <vehicle id="1_3" eclass="HBEFA3/PC_G_EU4" CO2="2624.72" CO="164.78" HC="0.81" NOx="1.20" PMx="0.07" fuel="1.13" electricity="0.00" noise="55.94" route="routeright" type="1" waiting="0.00" lane="right_1" pos="114.26" speed="0.00" angle="90.00" x="719.96" y="139.77"/>
        <vehicle id="1_4" eclass="HBEFA3/PC_G_EU4" CO2="2624.72" CO="164.78" HC="0.81" NOx="1.20" PMx="0.07" fuel="1.13" electricity="0.00" noise="55.94" route="routeright" type="1" waiting="0.00" lane="right_0" pos="244.28" speed="0.00" angle="90.00" x="847.39" y="136.47"/>
        <vehicle id="2_0" eclass="HBEFA3/PC_G_EU4" CO2="2624.72" CO="164.78" HC="0.81" NOx="1.20" PMx="0.07" fuel="1.13" electricity="0.00" noise="55.94" route="routeright" type="2" waiting="0.00" lane="right_1" pos="242.23" speed="0.00" angle="90.00" x="845.37" y="139.77"/>
        <vehicle id="2_1" eclass="HBEFA3/PC_G_EU4" CO2="2624.72" CO="164.78" HC="0.81" NOx="1.20" PMx="0.07" fuel="1.13" electricity="0.00" noise="55.94" route="routeright" type="2" waiting="0.00" lane="right_0" pos="361.06" speed="0.00" angle="90.00" x="961.84" y="136.47"/>
        <vehicle id="2_2" eclass="HBEFA3/PC_G_EU4" CO2="2624.72" CO="164.78" HC="0.81" NOx="1.20" PMx="0.07" fuel="1.13" electricity="0.00" noise="55.94" route="routeright" type="2" waiting="0.00" lane="right_1" pos="364.42" speed="0.00" angle="90.00" x="965.13" y="139.77"/>
        <vehicle id="2_3" eclass="HBEFA3/PC_G_EU4" CO2="2624.72" CO="164.78" HC="0.81" NOx="1.20" PMx="0.07" fuel="1.13" electricity="0.00" noise="55.94" route="routeleft" type="2" waiting="0.00" lane="left_0" pos="78.00" speed="0.00" angle="90.00" x="175.92" y="136.47"/>
        <vehicle id="2_4" eclass="HBEFA3/PC_G_EU4" CO2="2624.72" CO="164.78" HC="0.81" NOx="1.20" PMx="0.07" fuel="1.13" electricity="0.00" noise="55.94" route="routeleft" type="2" waiting="0.00" lane="left_1" pos="81.88" speed="0.00" angle="90.00" x="179.70" y="139.77"/>
        <vehicle id="3_0" eclass="HBEFA3/PC_G_EU4" CO2="2624.72" CO="164.78" HC="0.81" NOx="1.20" PMx="0.07" fuel="1.13" electricity="0.00" noise="55.94" route="routeleft" type="3" waiting="0.00" lane="left_0" pos="205.74" speed="0.00" angle="90.00" x="300.27" y="136.47"/>
        <vehicle id="3_1" eclass="HBEFA3/PC_G_EU4" CO2="2624.72" CO="164.78" HC="0.81" NOx="1.20" PMx="0.07" fuel="1.13" electricity="0.00" noise="55.94" route="routeleft" type="3" waiting="0.00" lane="left_1" pos="192.87" speed="0.00" angle="90.00" x="287.74" y="139.77"/>
        <vehicle id="3_2" eclass="HBEFA3/PC_G_EU4" CO2="2624.72" CO="164.78" HC="0.81" NOx="1.20" PMx="0.07" fuel="1.13" electricity="0.00" noise="55.94" route="routediverge" type="3" waiting="0.00" lane="diverge_0" pos="19.84" speed="0.00" angle="135.00" x="619.69" y="119.40"/>
        <vehicle id="3_3" eclass="HBEFA3/PC_G_EU4" CO2="2624.72" CO="164.78" HC="0.81" NOx="1.20" PMx="0.07" fuel="1.13" electricity="0.00" noise="55.94" route="routediverge" type="3" waiting="0.00" lane="diverge_0" pos="149.81" speed="0.00" angle="135.00" x="706.67" y="32.42"/>
        <vehicle id="3_4" eclass="HBEFA3/PC_G_EU4" CO2="2624.72" CO="164.78" HC="0.81" NOx="1.20" PMx="0.07" fuel="1.13" electricity="0.00" noise="55.94" route="routecenter" type="3" waiting="0.00" lane="center_0" pos="59.15" speed="0.00" angle="90.00" x="458.97" y="136.47"/>
        <vehicle id="4_0" eclass="HBEFA3/PC_G_EU4" CO2="2624.72" CO="164.78" HC="0.81" NOx="1.20" PMx="0.07" fuel="1.13" electricity="0.00" noise="55.94" route="routecenter" type="4" waiting="0.00" lane="center_1" pos="62.43" speed="0.00" angle="90.00" x="462.26" y="139.77"/>
        <vehicle id="4_1" eclass="HBEFA3/PC_G_EU4" CO2="2624.72" CO="164.78" HC="0.81" NOx="1.20" PMx="0.07" fuel="1.13" electricity="0.00" noise="55.94" route="routecenter" type="4" waiting="0.00" lane="center_0" pos="179.31" speed="0.00" angle="90.00" x="579.67" y="136.47"/>
        <vehicle id="4_2" eclass="HBEFA3/PC_G_EU4" CO2="2624.72" CO="164.78" HC="0.81" NOx="1.20" PMx="0.07" fuel="1.13" electricity="0.00" noise="55.94" route="routecenter" type="4" waiting="0.00" lane="center_1" pos="178.50" speed="0.00" angle="90.00" x="578.85" y="139.77"/>
        <vehicle id="4_3" eclass="HBEFA3/PC_G_EU4" CO2="2624.72" CO="164.78" HC="0.81" NOx="1.20" PMx="0.07" fuel="1.13" electricity="0.00" noise="55.94" route="routeinflow_highway" type="4" waiting="0.00" lane="inflow_highway_0" pos="2.30" speed="0.00" angle="90.00" x="2.30" y="136.47"/>
        <vehicle id="4_4" eclass="HBEFA3/PC_G_EU4" CO2="2624.72" CO="164.78" HC="0.81" NOx="1.20" PMx="0.07" fuel="1.13" electricity="0.00" noise="55.94" route="routeinflow_highway" type="4" waiting="0.00" lane="inflow_highway_1" pos="9.58" speed="0.00" angle="90.00" x="9.58" y="139.77"/>
    </timestep>
    <timestep time="0.20">
        <vehicle id="1_0" eclass="HBEFA3/PC_G_EU4" CO2="2624.72" CO="164.78" HC="0.81" NOx="1.20" PMx="0.07" fuel="1.13" electricity="0.00" noise="55.94" route="routeright" type="1" waiting="0.00" lane="right_0" pos="13.27" speed="0.00" angle="90.00" x="620.98" y="136.47"/>
        <vehicle id="1_1" eclass="HBEFA3/PC_G_EU4" CO2="2624.72" CO="164.78" HC="0.81" NOx="1.20" PMx="0.07" fuel="1.13" electricity="0.00" noise="55.94" route="routeright" type="1" waiting="0.00" lane="right_1" pos="9.23" speed="0.00" angle="90.00" x="617.03" y="139.77"/>
        <vehicle id="1_2" eclass="HBEFA3/PC_G_EU4" CO2="2624.72" CO="164.78" HC="0.81" NOx="1.20" PMx="0.07" fuel="1.13" electricity="0.00" noise="55.94" route="routeright" type="1" waiting="0.00" lane="right_0" pos="131.02" speed="0.00" angle="90.00" x="736.38" y="136.47"/>
        <vehicle id="1_3" eclass="HBEFA3/PC_G_EU4" CO2="2624.72" CO="164.78" HC="0.81" NOx="1.20" PMx="0.07" fuel="1.13" electricity="0.00" noise="55.94" route="routeright" type="1" waiting="0.00" lane="right_1" pos="114.26" speed="0.00" angle="90.00" x="719.96" y="139.77"/>
        <vehicle id="1_4" eclass="HBEFA3/PC_G_EU4" CO2="2624.72" CO="164.78" HC="0.81" NOx="1.20" PMx="0.07" fuel="1.13" electricity="0.00" noise="55.94" route="routeright" type="1" waiting="0.00" lane="right_0" pos="244.28" speed="0.00" angle="90.00" x="847.39" y="136.47"/>
        <vehicle id="2_0" eclass="HBEFA3/PC_G_EU4" CO2="2624.72" CO="164.78" HC="0.81" NOx="1.20" PMx="0.07" fuel="1.13" electricity="0.00" noise="55.94" route="routeright" type="2" waiting="0.00" lane="right_1" pos="242.23" speed="0.00" angle="90.00" x="845.37" y="139.77"/>
        <vehicle id="2_1" eclass="HBEFA3/PC_G_EU4" CO2="2624.72" CO="164.78" HC="0.81" NOx="1.20" PMx="0.07" fuel="1.13" electricity="0.00" noise="55.94" route="routeright" type="2" waiting="0.00" lane="right_0" pos="361.06" speed="0.00" angle="90.00" x="961.84" y="136.47"/>
        <vehicle id="2_2" eclass="HBEFA3/PC_G_EU4" CO2="2624.72" CO="164.78" HC="0.81" NOx="1.20" PMx="0.07" fuel="1.13" electricity="0.00" noise="55.94" route="routeright" type="2" waiting="0.00" lane="right_1" pos="364.42" speed="0.00" angle="90.00" x="965.13" y="139.77"/>
        <vehicle id="2_3" eclass="HBEFA3/PC_G_EU4" CO2="2624.72" CO="164.78" HC="0.81" NOx="1.20" PMx="0.07" fuel="1.13" electricity="0.00" noise="55.94" route="routeleft" type="2" waiting="0.00" lane="left_0" pos="78.00" speed="0.00" angle="90.00" x="175.92" y="136.47"/>
        <vehicle id="2_4" eclass="HBEFA3/PC_G_EU4" CO2="2624.72" CO="164.78" HC="0.81" NOx="1.20" PMx="0.07" fuel="1.13" electricity="0.00" noise="55.94" route="routeleft" type="2" waiting="0.00" lane="left_1" pos="81.88" speed="0.00" angle="90.00" x="179.70" y="139.77"/>
        <vehicle id="3_0" eclass="HBEFA3/PC_G_EU4" CO2="2624.72" CO="164.78" HC="0.81" NOx="1.20" PMx="0.07" fuel="1.13" electricity="0.00" noise="55.94" route="routeleft" type="3" waiting="0.00" lane="left_0" pos="205.74" speed="0.00" angle="90.00" x="300.27" y="136.47"/>
        <vehicle id="3_1" eclass="HBEFA3/PC_G_EU4" CO2="2624.72" CO="164.78" HC="0.81" NOx="1.20" PMx="0.07" fuel="1.13" electricity="0.00" noise="55.94" route="routeleft" type="3" waiting="0.00" lane="left_1" pos="192.87" speed="0.00" angle="90.00" x="287.74" y="139.77"/>
        <vehicle id="3_2" eclass="HBEFA3/PC_G_EU4" CO2="2624.72" CO="164.78" HC="0.81" NOx="1.20" PMx="0.07" fuel="1.13" electricity="0.00" noise="55.94" route="routediverge" type="3" waiting="0.00" lane="diverge_0" pos="19.84" speed="0.00" angle="135.00" x="619.69" y="119.40"/>
        <vehicle id="3_3" eclass="HBEFA3/PC_G_EU4" CO2="2624.72" CO="164.78" HC="0.81" NOx="1.20" PMx="0.07" fuel="1.13" electricity="0.00" noise="55.94" route="routediverge" type="3" waiting="0.00" lane="diverge_0" pos="149.81" speed="0.00" angle="135.00" x="706.67" y="32.42"/>
        <vehicle id="3_4" eclass="HBEFA3/PC_G_EU4" CO2="2624.72" CO="164.78" HC="0.81" NOx="1.20" PMx="0.07" fuel="1.13" electricity="0.00" noise="55.94" route="routecenter" type="3" waiting="0.00" lane="center_0" pos="59.15" speed="0.00" angle="90.00" x="458.97" y="136.47"/>
        <vehicle id="4_0" eclass="HBEFA3/PC_G_EU4" CO2="2624.72" CO="164.78" HC="0.81" NOx="1.20" PMx="0.07" fuel="1.13" electricity="0.00" noise="55.94" route="routecenter" type="4" waiting="0.00" lane="center_1" pos="62.43" speed="0.00" angle="90.00" x="462.26" y="139.77"/>
        <vehicle id="4_1" eclass="HBEFA3/PC_G_EU4" CO2="2624.72" CO="164.78" HC="0.81" NOx="1.20" PMx="0.07" fuel="1.13" electricity="0.00" noise="55.94" route="routecenter" type="4" waiting="0.00" lane="center_0" pos="179.31" speed="0.00" angle="90.00" x="579.67" y="136.47"/>
        <vehicle id="4_2" eclass="HBEFA3/PC_G_EU4" CO2="2624.72" CO="164.78" HC="0.81" NOx="1.20" PMx="0.07" fuel="1.13" electricity="0.00" noise="55.94" route="routecenter" type="4" waiting="0.00" lane="center_1" pos="178.50" speed="0.00" angle="90.00" x="578.85" y="139.77"/>
        <vehicle id="4_3" eclass="HBEFA3/PC_G_EU4" CO2="2624.72" CO="164.78" HC="0.81" NOx="1.20" PMx="0.07" fuel="1.13" electricity="0.00" noise="55.94" route="routeinflow_highway" type="4" waiting="0.00" lane="inflow_highway_0" pos="2.30" speed="0.00" angle="90.00" x="2.30" y="136.47"/>
        <vehicle id="4_4" eclass="HBEFA3/PC_G_EU4" CO2="2624.72" CO="164.78" HC="0.81" NOx="1.20" PMx="0.07" fuel="1.13" electricity="0.00" noise="55.94" route="routeinflow_highway" type="4" waiting="0.00" lane="inflow_highway_1" pos="9.58" speed="0.00" angle="90.00" x="9.58" y="139.77"/>
    </timestep>
    <timestep time="0.40">
        <vehicle id="1_0" eclass="HBEFA3/PC_G_EU4" CO2="2642.02" CO="162.06" HC="0.80" NOx="1.21" PMx="0.07" fuel="1.14" electricity="0.00" noise="59.85" route="routeright" type="1" waiting="0.00" lane="right_0" pos="13.30" speed="0.17" angle="90.00" x="621.02" y="136.47"/>
        <vehicle id="1_1" eclass="HBEFA3/PC_G_EU4" CO2="2633.21" CO="162.42" HC="0.80" NOx="1.20" PMx="0.07" fuel="1.13" electricity="0.00" noise="59.16" route="routeright" type="1" waiting="0.00" lane="right_1" pos="9.26" speed="0.14" angle="90.00" x="617.06" y="139.77"/>
        <vehicle id="1_2" eclass="HBEFA3/PC_G_EU4" CO2="2640.74" CO="162.10" HC="0.80" NOx="1.21" PMx="0.07" fuel="1.14" electricity="0.00" noise="59.76" route="routeright" type="1" waiting="0.00" lane="right_0" pos="131.05" speed="0.17" angle="90.00" x="736.42" y="136.47"/>
        <vehicle id="1_3" eclass="HBEFA3/PC_G_EU4" CO2="2651.22" CO="161.80" HC="0.80" NOx="1.21" PMx="0.07" fuel="1.14" electricity="0.00" noise="60.41" route="routeright" type="1" waiting="0.00" lane="right_1" pos="114.30" speed="0.20" angle="90.00" x="720.00" y="139.77"/>
        <vehicle id="1_4" eclass="HBEFA3/PC_G_EU4" CO2="2647.70" CO="161.89" HC="0.80" NOx="1.21" PMx="0.07" fuel="1.14" electricity="0.00" noise="60.21" route="routeright" type="1" waiting="0.00" lane="right_0" pos="244.32" speed="0.19" angle="90.00" x="847.43" y="136.47"/>
        <vehicle id="2_0" eclass="HBEFA3/PC_G_EU4" CO2="2651.22" CO="161.80" HC="0.80" NOx="1.21" PMx="0.07" fuel="1.14" electricity="0.00" noise="60.41" route="routeright" type="2" waiting="0.00" lane="right_1" pos="242.27" speed="0.20" angle="90.00" x="845.41" y="139.77"/>
        <vehicle id="2_1" eclass="HBEFA3/PC_G_EU4" CO2="2651.22" CO="161.80" HC="0.80" NOx="1.21" PMx="0.07" fuel="1.14" electricity="0.00" noise="60.41" route="routeright" type="2" waiting="0.00" lane="right_0" pos="361.10" speed="0.20" angle="90.00" x="961.88" y="136.47"/>
        <vehicle id="2_2" eclass="HBEFA3/PC_G_EU4" CO2="2632.15" CO="162.47" HC="0.80" NOx="1.20" PMx="0.07" fuel="1.13" electricity="0.00" noise="59.06" route="routeright" type="2" waiting="0.00" lane="right_1" pos="364.45" speed="0.14" angle="90.00" x="965.15" y="139.77"/>
        <vehicle id="2_3" eclass="HBEFA3/PC_G_EU4" CO2="2644.60" CO="161.98" HC="0.80" NOx="1.21" PMx="0.07" fuel="1.14" electricity="0.00" noise="60.02" route="routeleft" type="2" waiting="0.00" lane="left_0" pos="78.03" speed="0.18" angle="90.00" x="175.96" y="136.47"/>
        <vehicle id="2_4" eclass="HBEFA3/PC_G_EU4" CO2="2632.55" CO="162.45" HC="0.80" NOx="1.20" PMx="0.07" fuel="1.13" electricity="0.00" noise="59.10" route="routeleft" type="2" waiting="0.00" lane="left_1" pos="81.90" speed="0.14" angle="90.00" x="179.73" y="139.77"/>
        <vehicle id="3_0" eclass="HBEFA3/PC_G_EU4" CO2="2651.22" CO="161.80" HC="0.80" NOx="1.21" PMx="0.07" fuel="1.14" electricity="0.00" noise="60.41" route="routeleft" type="3" waiting="0.00" lane="left_0" pos="205.78" speed="0.20" angle="90.00" x="300.31" y="136.47"/>
        <vehicle id="3_1" eclass="HBEFA3/PC_G_EU4" CO2="2651.22" CO="161.80" HC="0.80" NOx="1.21" PMx="0.07" fuel="1.14" electricity="0.00" noise="60.41" route="routeleft" type="3" waiting="0.00" lane="left_1" pos="192.91" speed="0.20" angle="90.00" x="287.78" y="139.77"/>
        <vehicle id="3_2" eclass="HBEFA3/PC_G_EU4" CO2="2651.22" CO="161.80" HC="0.80" NOx="1.21" PMx="0.07" fuel="1.14" electricity="0.00" noise="60.41" route="routediverge" type="3" waiting="0.00" lane="diverge_0" pos="19.88" speed="0.20" angle="135.00" x="619.72" y="119.37"/>
        <vehicle id="3_3" eclass="HBEFA3/PC_G_EU4" CO2="2651.22" CO="161.80" HC="0.80" NOx="1.21" PMx="0.07" fuel="1.14" electricity="0.00" noise="60.41" route="routediverge" type="3" waiting="0.00" lane="diverge_0" pos="149.85" speed="0.20" angle="135.00" x="706.69" y="32.39"/>
        <vehicle id="3_4" eclass="HBEFA3/PC_G_EU4" CO2="2651.22" CO="161.80" HC="0.80" NOx="1.21" PMx="0.07" fuel="1.14" electricity="0.00" noise="60.41" route="routecenter" type="3" waiting="0.00" lane="center_0" pos="59.19" speed="0.20" angle="90.00" x="459.01" y="136.47"/>
        <vehicle id="4_0" eclass="HBEFA3/PC_G_EU4" CO2="2651.22" CO="161.80" HC="0.80" NOx="1.21" PMx="0.07" fuel="1.14" electricity="0.00" noise="60.41" route="routecenter" type="4" waiting="0.00" lane="center_1" pos="62.47" speed="0.20" angle="90.00" x="462.30" y="139.77"/>
        <vehicle id="4_1" eclass="HBEFA3/PC_G_EU4" CO2="2623.13" CO="163.25" HC="0.80" NOx="1.20" PMx="0.07" fuel="1.13" electricity="0.00" noise="57.83" route="routecenter" type="4" waiting="0.20" lane="center_0" pos="179.33" speed="0.08" angle="90.00" x="579.69" y="136.47"/>
        <vehicle id="4_2" eclass="HBEFA3/PC_G_EU4" CO2="2642.59" CO="162.04" HC="0.80" NOx="1.21" PMx="0.07" fuel="1.14" electricity="0.00" noise="59.88" route="routecenter" type="4" waiting="0.00" lane="center_1" pos="178.54" speed="0.18" angle="90.00" x="578.89" y="139.77"/>
        <vehicle id="4_3" eclass="HBEFA3/PC_G_EU4" CO2="2651.22" CO="161.80" HC="0.80" NOx="1.21" PMx="0.07" fuel="1.14" electricity="0.00" noise="60.41" route="routeinflow_highway" type="4" waiting="0.00" lane="inflow_highway_0" pos="2.34" speed="0.20" angle="90.00" x="2.34" y="136.47"/>
        <vehicle id="4_4" eclass="HBEFA3/PC_G_EU4" CO2="2627.61" CO="162.76" HC="0.80" NOx="1.20" PMx="0.07" fuel="1.13" electricity="0.00" noise="58.57" route="routeinflow_highway" type="4" waiting="0.00" lane="inflow_highway_1" pos="9.60" speed="0.12" angle="90.00" x="9.60" y="139.77"/>
    </timestep>
    <timestep time="0.60">
        <vehicle id="1_0" eclass="HBEFA3/PC_G_EU4" CO2="2674.86" CO="159.25" HC="0.79" NOx="1.22" PMx="0.07" fuel="1.15" electricity="0.00" noise="60.48" route="routeright" type="1" waiting="0.00" lane="right_0" pos="13.38" speed="0.37" angle="90.00" x="621.09" y="136.47"/>
        <vehicle id="1_1" eclass="HBEFA3/PC_G_EU4" CO2="2660.85" CO="159.80" HC="0.79" NOx="1.21" PMx="0.07" fuel="1.14" electricity="0.00" noise="60.08" route="routeright" type="1" waiting="0.00" lane="right_1" pos="9.33" speed="0.33" angle="90.00" x="617.12" y="139.77"/>
        <vehicle id="1_2" eclass="HBEFA3/PC_G_EU4" CO2="2674.32" CO="159.31" HC="0.79" NOx="1.22" PMx="0.07" fuel="1.15" electricity="0.00" noise="60.48" route="routeright" type="1" waiting="0.00" lane="right_0" pos="131.13" speed="0.37" angle="90.00" x="736.49" y="136.47"/>
        <vehicle id="1_3" eclass="HBEFA3/PC_G_EU4" CO2="2678.34" CO="158.88" HC="0.79" NOx="1.22" PMx="0.07" fuel="1.15" electricity="0.00" noise="60.49" route="routeright" type="1" waiting="0.00" lane="right_1" pos="114.38" speed="0.40" angle="90.00" x="720.08" y="139.77"/>
        <vehicle id="1_4" eclass="HBEFA3/PC_G_EU4" CO2="2645.83" CO="159.31" HC="0.79" NOx="1.21" PMx="0.06" fuel="1.14" electricity="0.00" noise="59.27" route="routeright" type="1" waiting="0.00" lane="right_0" pos="244.39" speed="0.34" angle="90.00" x="847.49" y="136.47"/>
        <vehicle id="2_0" eclass="HBEFA3/PC_G_EU4" CO2="2671.24" CO="158.92" HC="0.79" NOx="1.22" PMx="0.07" fuel="1.15" electricity="0.00" noise="60.24" route="routeright" type="2" waiting="0.00" lane="right_1" pos="242.34" speed="0.39" angle="90.00" x="845.49" y="139.77"/>
        <vehicle id="2_1" eclass="HBEFA3/PC_G_EU4" CO2="2652.78" CO="159.09" HC="0.79" NOx="1.21" PMx="0.06" fuel="1.14" electricity="0.00" noise="59.54" route="routeright" type="2" waiting="0.00" lane="right_0" pos="361.17" speed="0.36" angle="90.00" x="961.95" y="136.47"/>
        <vehicle id="2_2" eclass="HBEFA3/PC_G_EU4" CO2="2657.66" CO="159.90" HC="0.79" NOx="1.21" PMx="0.07" fuel="1.14" electricity="0.00" noise="59.96" route="routeright" type="2" waiting="0.00" lane="right_1" pos="364.51" speed="0.32" angle="90.00" x="965.22" y="139.77"/>
        <vehicle id="2_3" eclass="HBEFA3/PC_G_EU4" CO2="2675.90" CO="159.14" HC="0.79" NOx="1.22" PMx="0.07" fuel="1.15" electricity="0.00" noise="60.48" route="routeleft" type="2" waiting="0.00" lane="left_0" pos="78.11" speed="0.38" angle="90.00" x="176.03" y="136.47"/>
        <vehicle id="2_4" eclass="HBEFA3/PC_G_EU4" CO2="2645.87" CO="160.05" HC="0.79" NOx="1.21" PMx="0.06" fuel="1.14" electricity="0.00" noise="59.41" route="routeleft" type="2" waiting="0.00" lane="left_1" pos="81.96" speed="0.29" angle="90.00" x="179.78" y="139.77"/>
        <vehicle id="3_0" eclass="HBEFA3/PC_G_EU4" CO2="2678.34" CO="158.88" HC="0.79" NOx="1.22" PMx="0.07" fuel="1.15" electricity="0.00" noise="60.49" route="routeleft" type="3" waiting="0.00" lane="left_0" pos="205.86" speed="0.40" angle="90.00" x="300.39" y="136.47"/>
        <vehicle id="3_1" eclass="HBEFA3/PC_G_EU4" CO2="2678.34" CO="158.88" HC="0.79" NOx="1.22" PMx="0.07" fuel="1.15" electricity="0.00" noise="60.49" route="routeleft" type="3" waiting="0.00" lane="left_1" pos="192.99" speed="0.40" angle="90.00" x="287.86" y="139.77"/>
        <vehicle id="3_2" eclass="HBEFA3/PC_G_EU4" CO2="2678.34" CO="158.88" HC="0.79" NOx="1.22" PMx="0.07" fuel="1.15" electricity="0.00" noise="60.49" route="routediverge" type="3" waiting="0.00" lane="diverge_0" pos="19.96" speed="0.40" angle="135.00" x="619.77" y="119.32"/>
        <vehicle id="3_3" eclass="HBEFA3/PC_G_EU4" CO2="2678.34" CO="158.88" HC="0.79" NOx="1.22" PMx="0.07" fuel="1.15" electricity="0.00" noise="60.49" route="routediverge" type="3" waiting="0.00" lane="diverge_0" pos="149.93" speed="0.40" angle="135.00" x="706.75" y="32.34"/>
        <vehicle id="3_4" eclass="HBEFA3/PC_G_EU4" CO2="2678.34" CO="158.88" HC="0.79" NOx="1.22" PMx="0.07" fuel="1.15" electricity="0.00" noise="60.49" route="routecenter" type="3" waiting="0.00" lane="center_0" pos="59.27" speed="0.40" angle="90.00" x="459.09" y="136.47"/>
        <vehicle id="4_0" eclass="HBEFA3/PC_G_EU4" CO2="2671.87" CO="158.92" HC="0.79" NOx="1.22" PMx="0.07" fuel="1.15" electricity="0.00" noise="60.27" route="routecenter" type="4" waiting="0.00" lane="center_1" pos="62.55" speed="0.39" angle="90.00" x="462.38" y="139.77"/>
        <vehicle id="4_1" eclass="HBEFA3/PC_G_EU4" CO2="2649.46" CO="160.78" HC="0.79" NOx="1.21" PMx="0.07" fuel="1.14" electricity="0.00" noise="59.82" route="routecenter" type="4" waiting="0.00" lane="center_0" pos="179.38" speed="0.26" angle="90.00" x="579.74" y="136.47"/>
        <vehicle id="4_2" eclass="HBEFA3/PC_G_EU4" CO2="2623.87" CO="159.99" HC="0.79" NOx="1.20" PMx="0.06" fuel="1.13" electricity="0.00" noise="58.14" route="routecenter" type="4" waiting="0.00" lane="center_1" pos="178.59" speed="0.27" angle="90.00" x="578.94" y="139.77"/>
        <vehicle id="4_3" eclass="HBEFA3/PC_G_EU4" CO2="2678.34" CO="158.88" HC="0.79" NOx="1.22" PMx="0.07" fuel="1.15" electricity="0.00" noise="60.49" route="routeinflow_highway" type="4" waiting="0.00" lane="inflow_highway_0" pos="2.42" speed="0.40" angle="90.00" x="2.42" y="136.47"/>
        <vehicle id="4_4" eclass="HBEFA3/PC_G_EU4" CO2="2667.11" CO="160.08" HC="0.79" NOx="1.22" PMx="0.07" fuel="1.15" electricity="0.00" noise="60.46" route="routeinflow_highway" type="4" waiting="0.00" lane="inflow_highway_1" pos="9.67" speed="0.32" angle="90.00" x="9.67" y="139.77"/>
    </timestep>
    <timestep time="0.80">
        <vehicle id="1_0" eclass="HBEFA3/PC_G_EU4" CO2="2702.53" CO="156.36" HC="0.78" NOx="1.23" PMx="0.06" fuel="1.16" electricity="0.00" noise="60.56" route="routeright" type="1" waiting="0.00" lane="right_0" pos="13.49" speed="0.57" angle="90.00" x="621.20" y="136.47"/>
        <vehicle id="1_1" eclass="HBEFA3/PC_G_EU4" CO2="2695.81" CO="157.05" HC="0.78" NOx="1.22" PMx="0.06" fuel="1.16" electricity="0.00" noise="60.54" route="routeright" type="1" waiting="0.00" lane="right_1" pos="9.43" speed="0.53" angle="90.00" x="617.23" y="139.77"/>
        <vehicle id="1_2" eclass="HBEFA3/PC_G_EU4" CO2="2701.98" CO="156.42" HC="0.78" NOx="1.23" PMx="0.06" fuel="1.16" electricity="0.00" noise="60.55" route="routeright" type="1" waiting="0.00" lane="right_0" pos="131.24" speed="0.57" angle="90.00" x="736.60" y="136.47"/>
        <vehicle id="1_3" eclass="HBEFA3/PC_G_EU4" CO2="2702.04" CO="155.99" HC="0.77" NOx="1.22" PMx="0.06" fuel="1.16" electricity="0.00" noise="60.47" route="routeright" type="1" waiting="0.00" lane="right_1" pos="114.50" speed="0.60" angle="90.00" x="720.19" y="139.77"/>
        <vehicle id="1_4" eclass="HBEFA3/PC_G_EU4" CO2="2677.02" CO="156.92" HC="0.78" NOx="1.21" PMx="0.06" fuel="1.15" electricity="0.00" noise="59.98" route="routeright" type="1" waiting="0.00" lane="right_0" pos="244.49" speed="0.51" angle="90.00" x="847.59" y="136.47"/>
        <vehicle id="2_0" eclass="HBEFA3/PC_G_EU4" CO2="2658.12" CO="156.16" HC="0.77" NOx="1.21" PMx="0.06" fuel="1.14" electricity="0.00" noise="59.32" route="routeright" type="2" waiting="0.00" lane="right_1" pos="242.45" speed="0.53" angle="90.00" x="845.59" y="139.77"/>
        <vehicle id="2_1" eclass="HBEFA3/PC_G_EU4" CO2="2684.17" CO="156.60" HC="0.78" NOx="1.22" PMx="0.06" fuel="1.15" electricity="0.00" noise="60.12" route="routeright" type="2" waiting="0.00" lane="right_0" pos="361.28" speed="0.54" angle="90.00" x="962.05" y="136.47"/>
        <vehicle id="2_2" eclass="HBEFA3/PC_G_EU4" CO2="2694.50" CO="157.19" HC="0.78" NOx="1.22" PMx="0.06" fuel="1.16" electricity="0.00" noise="60.53" route="routeright" type="2" waiting="0.00" lane="right_1" pos="364.61" speed="0.52" angle="90.00" x="965.32" y="139.77"/>
        <vehicle id="2_3" eclass="HBEFA3/PC_G_EU4" CO2="2689.20" CO="156.24" HC="0.77" NOx="1.22" PMx="0.06" fuel="1.16" electricity="0.00" noise="60.19" route="routeleft" type="2" waiting="0.00" lane="left_0" pos="78.22" speed="0.57" angle="90.00" x="176.14" y="136.47"/>
        <vehicle id="2_4" eclass="HBEFA3/PC_G_EU4" CO2="2665.60" CO="157.59" HC="0.78" NOx="1.21" PMx="0.06" fuel="1.15" electricity="0.00" noise="59.74" route="routeleft" type="2" waiting="0.00" lane="left_1" pos="82.05" speed="0.46" angle="90.00" x="179.87" y="139.77"/>
        <vehicle id="3_0" eclass="HBEFA3/PC_G_EU4" CO2="2706.10" CO="156.00" HC="0.77" NOx="1.23" PMx="0.06" fuel="1.16" electricity="0.00" noise="60.57" route="routeleft" type="3" waiting="0.00" lane="left_0" pos="205.98" speed="0.60" angle="90.00" x="300.50" y="136.47"/>
        <vehicle id="3_1" eclass="HBEFA3/PC_G_EU4" CO2="2663.17" CO="155.98" HC="0.77" NOx="1.21" PMx="0.06" fuel="1.14" electricity="0.00" noise="59.44" route="routeleft" type="3" waiting="0.00" lane="left_1" pos="193.10" speed="0.55" angle="90.00" x="287.96" y="139.77"/>
        <vehicle id="3_2" eclass="HBEFA3/PC_G_EU4" CO2="2706.10" CO="156.00" HC="0.77" NOx="1.23" PMx="0.06" fuel="1.16" electricity="0.00" noise="60.57" route="routediverge" type="3" waiting="0.00" lane="diverge_0" pos="20.08" speed="0.60" angle="135.00" x="619.85" y="119.24"/>
        <vehicle id="3_3" eclass="HBEFA3/PC_G_EU4" CO2="2695.12" CO="155.98" HC="0.77" NOx="1.22" PMx="0.06" fuel="1.16" electricity="0.00" noise="60.29" route="routediverge" type="3" waiting="0.00" lane="diverge_0" pos="150.05" speed="0.59" angle="135.00" x="706.82" y="32.26"/>
        <vehicle id="3_4" eclass="HBEFA3/PC_G_EU4" CO2="2706.10" CO="156.00" HC="0.77" NOx="1.23" PMx="0.06" fuel="1.16" electricity="0.00" noise="60.57" route="routecenter" type="3" waiting="0.00" lane="center_0" pos="59.39" speed="0.60" angle="90.00" x="459.21" y="136.47"/>
        <vehicle id="4_0" eclass="HBEFA3/PC_G_EU4" CO2="2689.14" CO="156.12" HC="0.77" NOx="1.22" PMx="0.06" fuel="1.16" electricity="0.00" noise="60.17" route="routecenter" type="4" waiting="0.00" lane="center_1" pos="62.66" speed="0.57" angle="90.00" x="462.49" y="139.77"/>
        <vehicle id="4_1" eclass="HBEFA3/PC_G_EU4" CO2="2656.80" CO="158.21" HC="0.78" NOx="1.21" PMx="0.06" fuel="1.14" electricity="0.00" noise="59.54" route="routecenter" type="4" waiting="0.00" lane="center_0" pos="179.46" speed="0.41" angle="90.00" x="579.82" y="136.47"/>
        <vehicle id="4_2" eclass="HBEFA3/PC_G_EU4" CO2="2688.24" CO="157.84" HC="0.78" NOx="1.22" PMx="0.07" fuel="1.16" electricity="0.00" noise="60.52" route="routecenter" type="4" waiting="0.00" lane="center_1" pos="178.68" speed="0.47" angle="90.00" x="579.04" y="139.77"/>
        <vehicle id="4_3" eclass="HBEFA3/PC_G_EU4" CO2="2706.10" CO="156.00" HC="0.77" NOx="1.23" PMx="0.06" fuel="1.16" electricity="0.00" noise="60.57" route="routeinflow_highway" type="4" waiting="0.00" lane="inflow_highway_0" pos="2.54" speed="0.60" angle="90.00" x="2.54" y="136.47"/>
        <vehicle id="4_4" eclass="HBEFA3/PC_G_EU4" CO2="2653.50" CO="157.29" HC="0.78" NOx="1.21" PMx="0.06" fuel="1.14" electricity="0.00" noise="59.29" route="routeinflow_highway" type="4" waiting="0.00" lane="inflow_highway_1" pos="9.76" speed="0.46" angle="90.00" x="9.76" y="139.77"/>
    </timestep>
    <timestep time="1.00">
        <vehicle id="1_0" eclass="HBEFA3/PC_G_EU4" CO2="2730.83" CO="153.52" HC="0.76" NOx="1.23" PMx="0.06" fuel="1.17" electricity="0.00" noise="60.63" route="routeright" type="1" waiting="0.00" lane="right_0" pos="13.65" speed="0.77" angle="90.00" x="621.35" y="136.47"/>