<?xml version="1.0" encoding="UTF-8"?>

<!-- generated on Mon Nov 19 20:30:35 2018 by SUMO gui Version b'v0_31_0-812-g1d4338ab80'
<?xml version="1.0" encoding="UTF-8"?>

<configuration xmlns:xsi="http://www.w3.org/2001/XMLSchema-instance" xsi:noNamespaceSchemaLocation="http://sumo.dlr.de/xsd/sumoConfiguration.xsd">

    <input>
        <net-file value="/Users/barryfan/flow/flow/scenarios/debug/cfg/merge-baseline_20181119-2030341542688234.089113.net.xml"/>
        <route-files value="/Users/barryfan/flow/flow/scenarios/debug/cfg/merge-baseline_20181119-2030341542688234.089113.rou.xml"/>
        <additional-files value="/Users/barryfan/flow/flow/scenarios/debug/cfg/merge-baseline_20181119-2030341542688234.089113.add.xml"/>
    </input>

    <output>
        <emission-output value="./data/merge-baseline_20181119-2030341542688234.089113-emission.xml"/>
    </output>

    <time>
        <begin value="0"/>
        <step-length value="0.2"/>
    </time>

    <processing>
        <time-to-teleport value="-1"/>
    </processing>

    <report>
        <no-step-log value="true"/>
    </report>

    <traci_server>
        <remote-port value="63244"/>
    </traci_server>

    <gui_only>
        <gui-settings-file value="/Users/barryfan/flow/flow/scenarios/debug/cfg/merge-baseline_20181119-2030341542688234.089113.gui.cfg"/>
        <tracker-interval value="0.2"/>
    </gui_only>

</configuration>
-->

<emission-export xmlns:xsi="http://www.w3.org/2001/XMLSchema-instance" xsi:noNamespaceSchemaLocation="http://sumo.dlr.de/xsd/emission_file.xsd">
    <timestep time="0.00">
        <vehicle id="1_0" eclass="HBEFA3/PC_G_EU4" CO2="2624.72" CO="164.78" HC="0.81" NOx="1.20" PMx="0.07" fuel="1.13" electricity="0.00" noise="55.94" route="routediverge" type="1" waiting="0.00" lane="diverge_0" pos="11.93" speed="0.00" angle="135.00" x="614.39" y="124.70"/>
        <vehicle id="1_1" eclass="HBEFA3/PC_G_EU4" CO2="2624.72" CO="164.78" HC="0.81" NOx="1.20" PMx="0.07" fuel="1.13" electricity="0.00" noise="55.94" route="routediverge" type="1" waiting="0.00" lane="diverge_0" pos="118.97" speed="0.00" angle="135.00" x="686.02" y="53.06"/>
        <vehicle id="1_2" eclass="HBEFA3/PC_G_EU4" CO2="2624.72" CO="164.78" HC="0.81" NOx="1.20" PMx="0.07" fuel="1.13" electricity="0.00" noise="55.94" route="routeright" type="1" waiting="0.00" lane="right_0" pos="38.52" speed="0.00" angle="90.00" x="645.73" y="136.47"/>
        <vehicle id="1_3" eclass="HBEFA3/PC_G_EU4" CO2="2624.72" CO="164.78" HC="0.81" NOx="1.20" PMx="0.07" fuel="1.13" electricity="0.00" noise="55.94" route="routeright" type="1" waiting="0.00" lane="right_1" pos="44.51" speed="0.00" angle="90.00" x="651.60" y="139.77"/>
        <vehicle id="1_4" eclass="HBEFA3/PC_G_EU4" CO2="2624.72" CO="164.78" HC="0.81" NOx="1.20" PMx="0.07" fuel="1.13" electricity="0.00" noise="55.94" route="routeright" type="1" waiting="0.00" lane="right_0" pos="167.25" speed="0.00" angle="90.00" x="771.89" y="136.47"/>
        <vehicle id="2_0" eclass="HBEFA3/PC_G_EU4" CO2="2624.72" CO="164.78" HC="0.81" NOx="1.20" PMx="0.07" fuel="1.13" electricity="0.00" noise="55.94" route="routeright" type="2" waiting="0.00" lane="right_1" pos="173.63" speed="0.00" angle="90.00" x="778.15" y="139.77"/>
        <vehicle id="2_1" eclass="HBEFA3/PC_G_EU4" CO2="2624.72" CO="164.78" HC="0.81" NOx="1.20" PMx="0.07" fuel="1.13" electricity="0.00" noise="55.94" route="routeright" type="2" waiting="0.00" lane="right_0" pos="279.78" speed="0.00" angle="90.00" x="882.18" y="136.47"/>
        <vehicle id="2_2" eclass="HBEFA3/PC_G_EU4" CO2="2624.72" CO="164.78" HC="0.81" NOx="1.20" PMx="0.07" fuel="1.13" electricity="0.00" noise="55.94" route="routeright" type="2" waiting="0.00" lane="right_1" pos="286.09" speed="0.00" angle="90.00" x="888.36" y="139.77"/>
        <vehicle id="2_3" eclass="HBEFA3/PC_G_EU4" CO2="2624.72" CO="164.78" HC="0.81" NOx="1.20" PMx="0.07" fuel="1.13" electricity="0.00" noise="55.94" route="routecenter" type="2" waiting="0.00" lane="center_0" pos="0.00" speed="0.00" angle="65.13" x="399.55" y="136.47"/>
        <vehicle id="2_4" eclass="HBEFA3/PC_G_EU4" CO2="2624.72" CO="164.78" HC="0.81" NOx="1.20" PMx="0.07" fuel="1.13" electricity="0.00" noise="55.94" route="routecenter" type="2" waiting="0.00" lane="center_1" pos="9.31" speed="0.00" angle="90.00" x="408.90" y="139.77"/>
        <vehicle id="3_0" eclass="HBEFA3/PC_G_EU4" CO2="2624.72" CO="164.78" HC="0.81" NOx="1.20" PMx="0.07" fuel="1.13" electricity="0.00" noise="55.94" route="routecenter" type="3" waiting="0.00" lane="center_0" pos="121.63" speed="0.00" angle="90.00" x="521.72" y="136.47"/>
        <vehicle id="3_1" eclass="HBEFA3/PC_G_EU4" CO2="2624.72" CO="164.78" HC="0.81" NOx="1.20" PMx="0.07" fuel="1.13" electricity="0.00" noise="55.94" route="routecenter" type="3" waiting="0.00" lane="center_1" pos="127.90" speed="0.00" angle="90.00" x="528.03" y="139.77"/>
        <vehicle id="3_2" eclass="HBEFA3/PC_G_EU4" CO2="2624.72" CO="164.78" HC="0.81" NOx="1.20" PMx="0.07" fuel="1.13" electricity="0.00" noise="55.94" route="routeleft" type="3" waiting="0.00" lane="left_0" pos="51.57" speed="0.00" angle="90.00" x="150.20" y="136.47"/>
        <vehicle id="3_3" eclass="HBEFA3/PC_G_EU4" CO2="2624.72" CO="164.78" HC="0.81" NOx="1.20" PMx="0.07" fuel="1.13" electricity="0.00" noise="55.94" route="routeleft" type="3" waiting="0.00" lane="left_1" pos="42.75" speed="0.00" angle="90.00" x="141.61" y="139.77"/>
        <vehicle id="3_4" eclass="HBEFA3/PC_G_EU4" CO2="2624.72" CO="164.78" HC="0.81" NOx="1.20" PMx="0.07" fuel="1.13" electricity="0.00" noise="55.94" route="routeleft" type="3" waiting="0.00" lane="left_0" pos="165.21" speed="0.00" angle="90.00" x="260.82" y="136.47"/>
        <vehicle id="4_0" eclass="HBEFA3/PC_G_EU4" CO2="2624.72" CO="164.78" HC="0.81" NOx="1.20" PMx="0.07" fuel="1.13" electricity="0.00" noise="55.94" route="routeleft" type="4" waiting="0.00" lane="left_1" pos="163.37" speed="0.00" angle="90.00" x="259.02" y="139.77"/>
        <vehicle id="4_1" eclass="HBEFA3/PC_G_EU4" CO2="2624.72" CO="164.78" HC="0.81" NOx="1.20" PMx="0.07" fuel="1.13" electricity="0.00" noise="55.94" route="routeleft" type="4" waiting="0.00" lane="left_0" pos="281.97" speed="0.00" angle="90.00" x="374.47" y="136.47"/>
        <vehicle id="4_2" eclass="HBEFA3/PC_G_EU4" CO2="2624.72" CO="164.78" HC="0.81" NOx="1.20" PMx="0.07" fuel="1.13" electricity="0.00" noise="55.94" route="routeleft" type="4" waiting="0.00" lane="left_1" pos="282.52" speed="0.00" angle="90.00" x="375.00" y="139.77"/>
        <vehicle id="4_3" eclass="HBEFA3/PC_G_EU4" CO2="2624.72" CO="164.78" HC="0.81" NOx="1.20" PMx="0.07" fuel="1.13" electricity="0.00" noise="55.94" route="routeinflow_highway" type="4" waiting="0.00" lane="inflow_highway_0" pos="10.82" speed="0.00" angle="90.00" x="10.82" y="136.47"/>
        <vehicle id="4_4" eclass="HBEFA3/PC_G_EU4" CO2="2624.72" CO="164.78" HC="0.81" NOx="1.20" PMx="0.07" fuel="1.13" electricity="0.00" noise="55.94" route="routeinflow_highway" type="4" waiting="0.00" lane="inflow_highway_1" pos="8.36" speed="0.00" angle="90.00" x="8.36" y="139.77"/>
    </timestep>
    <timestep time="0.20">
        <vehicle id="1_0" eclass="HBEFA3/PC_G_EU4" CO2="2624.72" CO="164.78" HC="0.81" NOx="1.20" PMx="0.07" fuel="1.13" electricity="0.00" noise="55.94" route="routediverge" type="1" waiting="0.00" lane="diverge_0" pos="11.93" speed="0.00" angle="135.00" x="614.39" y="124.70"/>
        <vehicle id="1_1" eclass="HBEFA3/PC_G_EU4" CO2="2624.72" CO="164.78" HC="0.81" NOx="1.20" PMx="0.07" fuel="1.13" electricity="0.00" noise="55.94" route="routediverge" type="1" waiting="0.00" lane="diverge_0" pos="118.97" speed="0.00" angle="135.00" x="686.02" y="53.06"/>
        <vehicle id="1_2" eclass="HBEFA3/PC_G_EU4" CO2="2624.72" CO="164.78" HC="0.81" NOx="1.20" PMx="0.07" fuel="1.13" electricity="0.00" noise="55.94" route="routeright" type="1" waiting="0.00" lane="right_0" pos="38.52" speed="0.00" angle="90.00" x="645.73" y="136.47"/>
        <vehicle id="1_3" eclass="HBEFA3/PC_G_EU4" CO2="2624.72" CO="164.78" HC="0.81" NOx="1.20" PMx="0.07" fuel="1.13" electricity="0.00" noise="55.94" route="routeright" type="1" waiting="0.00" lane="right_1" pos="44.51" speed="0.00" angle="90.00" x="651.60" y="139.77"/>
        <vehicle id="1_4" eclass="HBEFA3/PC_G_EU4" CO2="2624.72" CO="164.78" HC="0.81" NOx="1.20" PMx="0.07" fuel="1.13" electricity="0.00" noise="55.94" route="routeright" type="1" waiting="0.00" lane="right_0" pos="167.25" speed="0.00" angle="90.00" x="771.89" y="136.47"/>
        <vehicle id="2_0" eclass="HBEFA3/PC_G_EU4" CO2="2624.72" CO="164.78" HC="0.81" NOx="1.20" PMx="0.07" fuel="1.13" electricity="0.00" noise="55.94" route="routeright" type="2" waiting="0.00" lane="right_1" pos="173.63" speed="0.00" angle="90.00" x="778.15" y="139.77"/>
        <vehicle id="2_1" eclass="HBEFA3/PC_G_EU4" CO2="2624.72" CO="164.78" HC="0.81" NOx="1.20" PMx="0.07" fuel="1.13" electricity="0.00" noise="55.94" route="routeright" type="2" waiting="0.00" lane="right_0" pos="279.78" speed="0.00" angle="90.00" x="882.18" y="136.47"/>
        <vehicle id="2_2" eclass="HBEFA3/PC_G_EU4" CO2="2624.72" CO="164.78" HC="0.81" NOx="1.20" PMx="0.07" fuel="1.13" electricity="0.00" noise="55.94" route="routeright" type="2" waiting="0.00" lane="right_1" pos="286.09" speed="0.00" angle="90.00" x="888.36" y="139.77"/>
        <vehicle id="2_3" eclass="HBEFA3/PC_G_EU4" CO2="2624.72" CO="164.78" HC="0.81" NOx="1.20" PMx="0.07" fuel="1.13" electricity="0.00" noise="55.94" route="routecenter" type="2" waiting="0.00" lane="center_0" pos="0.00" speed="0.00" angle="65.13" x="399.55" y="136.47"/>
        <vehicle id="2_4" eclass="HBEFA3/PC_G_EU4" CO2="2624.72" CO="164.78" HC="0.81" NOx="1.20" PMx="0.07" fuel="1.13" electricity="0.00" noise="55.94" route="routecenter" type="2" waiting="0.00" lane="center_1" pos="9.31" speed="0.00" angle="90.00" x="408.90" y="139.77"/>
        <vehicle id="3_0" eclass="HBEFA3/PC_G_EU4" CO2="2624.72" CO="164.78" HC="0.81" NOx="1.20" PMx="0.07" fuel="1.13" electricity="0.00" noise="55.94" route="routecenter" type="3" waiting="0.00" lane="center_0" pos="121.63" speed="0.00" angle="90.00" x="521.72" y="136.47"/>
        <vehicle id="3_1" eclass="HBEFA3/PC_G_EU4" CO2="2624.72" CO="164.78" HC="0.81" NOx="1.20" PMx="0.07" fuel="1.13" electricity="0.00" noise="55.94" route="routecenter" type="3" waiting="0.00" lane="center_1" pos="127.90" speed="0.00" angle="90.00" x="528.03" y="139.77"/>
        <vehicle id="3_2" eclass="HBEFA3/PC_G_EU4" CO2="2624.72" CO="164.78" HC="0.81" NOx="1.20" PMx="0.07" fuel="1.13" electricity="0.00" noise="55.94" route="routeleft" type="3" waiting="0.00" lane="left_0" pos="51.57" speed="0.00" angle="90.00" x="150.20" y="136.47"/>
        <vehicle id="3_3" eclass="HBEFA3/PC_G_EU4" CO2="2624.72" CO="164.78" HC="0.81" NOx="1.20" PMx="0.07" fuel="1.13" electricity="0.00" noise="55.94" route="routeleft" type="3" waiting="0.00" lane="left_1" pos="42.75" speed="0.00" angle="90.00" x="141.61" y="139.77"/>
        <vehicle id="3_4" eclass="HBEFA3/PC_G_EU4" CO2="2624.72" CO="164.78" HC="0.81" NOx="1.20" PMx="0.07" fuel="1.13" electricity="0.00" noise="55.94" route="routeleft" type="3" waiting="0.00" lane="left_0" pos="165.21" speed="0.00" angle="90.00" x="260.82" y="136.47"/>
        <vehicle id="4_0" eclass="HBEFA3/PC_G_EU4" CO2="2624.72" CO="164.78" HC="0.81" NOx="1.20" PMx="0.07" fuel="1.13" electricity="0.00" noise="55.94" route="routeleft" type="4" waiting="0.00" lane="left_1" pos="163.37" speed="0.00" angle="90.00" x="259.02" y="139.77"/>
        <vehicle id="4_1" eclass="HBEFA3/PC_G_EU4" CO2="2624.72" CO="164.78" HC="0.81" NOx="1.20" PMx="0.07" fuel="1.13" electricity="0.00" noise="55.94" route="routeleft" type="4" waiting="0.00" lane="left_0" pos="281.97" speed="0.00" angle="90.00" x="374.47" y="136.47"/>
        <vehicle id="4_2" eclass="HBEFA3/PC_G_EU4" CO2="2624.72" CO="164.78" HC="0.81" NOx="1.20" PMx="0.07" fuel="1.13" electricity="0.00" noise="55.94" route="routeleft" type="4" waiting="0.00" lane="left_1" pos="282.52" speed="0.00" angle="90.00" x="375.00" y="139.77"/>
        <vehicle id="4_3" eclass="HBEFA3/PC_G_EU4" CO2="2624.72" CO="164.78" HC="0.81" NOx="1.20" PMx="0.07" fuel="1.13" electricity="0.00" noise="55.94" route="routeinflow_highway" type="4" waiting="0.00" lane="inflow_highway_0" pos="10.82" speed="0.00" angle="90.00" x="10.82" y="136.47"/>
        <vehicle id="4_4" eclass="HBEFA3/PC_G_EU4" CO2="2624.72" CO="164.78" HC="0.81" NOx="1.20" PMx="0.07" fuel="1.13" electricity="0.00" noise="55.94" route="routeinflow_highway" type="4" waiting="0.00" lane="inflow_highway_1" pos="8.36" speed="0.00" angle="90.00" x="8.36" y="139.77"/>
    </timestep>
    <timestep time="0.40">
        <vehicle id="1_0" eclass="HBEFA3/PC_G_EU4" CO2="2624.64" CO="163.04" HC="0.80" NOx="1.20" PMx="0.07" fuel="1.13" electricity="0.00" noise="58.14" route="routediverge" type="1" waiting="0.20" lane="diverge_0" pos="11.95" speed="0.10" angle="135.00" x="614.40" y="124.68"/>
        <vehicle id="1_1" eclass="HBEFA3/PC_G_EU4" CO2="2646.50" CO="161.93" HC="0.80" NOx="1.21" PMx="0.07" fuel="1.14" electricity="0.00" noise="60.14" route="routediverge" type="1" waiting="0.00" lane="diverge_0" pos="119.01" speed="0.19" angle="135.00" x="686.05" y="53.04"/>
        <vehicle id="1_2" eclass="HBEFA3/PC_G_EU4" CO2="2651.22" CO="161.80" HC="0.80" NOx="1.21" PMx="0.07" fuel="1.14" electricity="0.00" noise="60.41" route="routeright" type="1" waiting="0.00" lane="right_0" pos="38.56" speed="0.20" angle="90.00" x="645.77" y="136.47"/>
        <vehicle id="1_3" eclass="HBEFA3/PC_G_EU4" CO2="2651.22" CO="161.80" HC="0.80" NOx="1.21" PMx="0.07" fuel="1.14" electricity="0.00" noise="60.41" route="routeright" type="1" waiting="0.00" lane="right_1" pos="44.55" speed="0.20" angle="90.00" x="651.64" y="139.77"/>
        <vehicle id="1_4" eclass="HBEFA3/PC_G_EU4" CO2="2640.74" CO="162.10" HC="0.80" NOx="1.21" PMx="0.07" fuel="1.14" electricity="0.00" noise="59.76" route="routeright" type="1" waiting="0.00" lane="right_0" pos="167.29" speed="0.17" angle="90.00" x="771.93" y="136.47"/>
        <vehicle id="2_0" eclass="HBEFA3/PC_G_EU4" CO2="2651.22" CO="161.80" HC="0.80" NOx="1.21" PMx="0.07" fuel="1.14" electricity="0.00" noise="60.41" route="routeright" type="2" waiting="0.00" lane="right_1" pos="173.67" speed="0.20" angle="90.00" x="778.19" y="139.77"/>
        <vehicle id="2_1" eclass="HBEFA3/PC_G_EU4" CO2="2651.22" CO="161.80" HC="0.80" NOx="1.21" PMx="0.07" fuel="1.14" electricity="0.00" noise="60.41" route="routeright" type="2" waiting="0.00" lane="right_0" pos="279.82" speed="0.20" angle="90.00" x="882.21" y="136.47"/>
        <vehicle id="2_2" eclass="HBEFA3/PC_G_EU4" CO2="2645.07" CO="161.97" HC="0.80" NOx="1.21" PMx="0.07" fuel="1.14" electricity="0.00" noise="60.05" route="routeright" type="2" waiting="0.00" lane="right_1" pos="286.12" speed="0.18" angle="90.00" x="888.39" y="139.77"/>
        <vehicle id="2_3" eclass="HBEFA3/PC_G_EU4" CO2="2632.41" CO="162.46" HC="0.80" NOx="1.20" PMx="0.07" fuel="1.13" electricity="0.00" noise="59.09" route="routecenter" type="2" waiting="0.00" lane="center_0" pos="0.03" speed="0.14" angle="65.40" x="399.58" y="136.47"/>
        <vehicle id="2_4" eclass="HBEFA3/PC_G_EU4" CO2="2651.22" CO="161.80" HC="0.80" NOx="1.21" PMx="0.07" fuel="1.14" electricity="0.00" noise="60.41" route="routecenter" type="2" waiting="0.00" lane="center_1" pos="9.35" speed="0.20" angle="90.00" x="408.95" y="139.77"/>
        <vehicle id="3_0" eclass="HBEFA3/PC_G_EU4" CO2="2647.79" CO="161.89" HC="0.80" NOx="1.21" PMx="0.07" fuel="1.14" electricity="0.00" noise="60.21" route="routecenter" type="3" waiting="0.00" lane="center_0" pos="121.66" speed="0.19" angle="90.00" x="521.76" y="136.47"/>
        <vehicle id="3_1" eclass="HBEFA3/PC_G_EU4" CO2="2633.19" CO="162.42" HC="0.80" NOx="1.20" PMx="0.07" fuel="1.13" electricity="0.00" noise="59.16" route="routecenter" type="3" waiting="0.00" lane="center_1" pos="127.93" speed="0.14" angle="90.00" x="528.06" y="139.77"/>
        <vehicle id="3_2" eclass="HBEFA3/PC_G_EU4" CO2="2651.22" CO="161.80" HC="0.80" NOx="1.21" PMx="0.07" fuel="1.14" electricity="0.00" noise="60.41" route="routeleft" type="3" waiting="0.00" lane="left_0" pos="51.61" speed="0.20" angle="90.00" x="150.23" y="136.47"/>
        <vehicle id="3_3" eclass="HBEFA3/PC_G_EU4" CO2="2651.22" CO="161.80" HC="0.80" NOx="1.21" PMx="0.07" fuel="1.14" electricity="0.00" noise="60.41" route="routeleft" type="3" waiting="0.00" lane="left_1" pos="42.79" speed="0.20" angle="90.00" x="141.65" y="139.77"/>
        <vehicle id="3_4" eclass="HBEFA3/PC_G_EU4" CO2="2651.22" CO="161.80" HC="0.80" NOx="1.21" PMx="0.07" fuel="1.14" electricity="0.00" noise="60.41" route="routeleft" type="3" waiting="0.00" lane="left_0" pos="165.25" speed="0.20" angle="90.00" x="260.86" y="136.47"/>
        <vehicle id="4_0" eclass="HBEFA3/PC_G_EU4" CO2="2651.22" CO="161.80" HC="0.80" NOx="1.21" PMx="0.07" fuel="1.14" electricity="0.00" noise="60.41" route="routeleft" type="4" waiting="0.00" lane="left_1" pos="163.41" speed="0.20" angle="90.00" x="259.06" y="139.77"/>
        <vehicle id="4_1" eclass="HBEFA3/PC_G_EU4" CO2="2635.14" CO="162.33" HC="0.80" NOx="1.21" PMx="0.07" fuel="1.13" electricity="0.00" noise="59.33" route="routeleft" type="4" waiting="0.00" lane="left_0" pos="282.00" speed="0.15" angle="90.00" x="374.50" y="136.47"/>
        <vehicle id="4_2" eclass="HBEFA3/PC_G_EU4" CO2="2646.31" CO="161.93" HC="0.80" NOx="1.21" PMx="0.07" fuel="1.14" electricity="0.00" noise="60.12" route="routeleft" type="4" waiting="0.00" lane="left_1" pos="282.55" speed="0.19" angle="90.00" x="375.04" y="139.77"/>
        <vehicle id="4_3" eclass="HBEFA3/PC_G_EU4" CO2="2640.57" CO="162.11" HC="0.80" NOx="1.21" PMx="0.07" fuel="1.14" electricity="0.00" noise="59.74" route="routeinflow_highway" type="4" waiting="0.00" lane="inflow_highway_0" pos="10.85" speed="0.17" angle="90.00" x="10.85" y="136.47"/>
        <vehicle id="4_4" eclass="HBEFA3/PC_G_EU4" CO2="2651.22" CO="161.80" HC="0.80" NOx="1.21" PMx="0.07" fuel="1.14" electricity="0.00" noise="60.41" route="routeinflow_highway" type="4" waiting="0.00" lane="inflow_highway_1" pos="8.40" speed="0.20" angle="90.00" x="8.40" y="139.77"/>
    </timestep>
    <timestep time="0.60">
        <vehicle id="1_0" eclass="HBEFA3/PC_G_EU4" CO2="2642.56" CO="160.74" HC="0.79" NOx="1.21" PMx="0.07" fuel="1.14" electricity="0.00" noise="59.39" route="routediverge" type="1" waiting="0.00" lane="diverge_0" pos="12.00" speed="0.25" angle="135.00" x="614.44" y="124.65"/>
        <vehicle id="1_1" eclass="HBEFA3/PC_G_EU4" CO2="2663.01" CO="159.16" HC="0.79" NOx="1.21" PMx="0.06" fuel="1.14" electricity="0.00" noise="59.99" route="routediverge" type="1" waiting="0.00" lane="diverge_0" pos="119.08" speed="0.37" angle="135.00" x="686.10" y="52.99"/>
        <vehicle id="1_2" eclass="HBEFA3/PC_G_EU4" CO2="2674.10" CO="158.90" HC="0.79" NOx="1.22" PMx="0.07" fuel="1.15" electricity="0.00" noise="60.34" route="routeright" type="1" waiting="0.00" lane="right_0" pos="38.64" speed="0.39" angle="90.00" x="645.85" y="136.47"/>
        <vehicle id="1_3" eclass="HBEFA3/PC_G_EU4" CO2="2640.80" CO="159.24" HC="0.79" NOx="1.20" PMx="0.06" fuel="1.14" electricity="0.00" noise="59.02" route="routeright" type="1" waiting="0.00" lane="right_1" pos="44.61" speed="0.33" angle="90.00" x="651.70" y="139.77"/>
        <vehicle id="1_4" eclass="HBEFA3/PC_G_EU4" CO2="2625.28" CO="160.05" HC="0.79" NOx="1.20" PMx="0.06" fuel="1.13" electricity="0.00" noise="58.23" route="routeright" type="1" waiting="0.00" lane="right_0" pos="167.34" speed="0.27" angle="90.00" x="771.98" y="136.47"/>
        <vehicle id="2_0" eclass="HBEFA3/PC_G_EU4" CO2="2678.34" CO="158.88" HC="0.79" NOx="1.22" PMx="0.07" fuel="1.15" electricity="0.00" noise="60.49" route="routeright" type="2" waiting="0.00" lane="right_1" pos="173.75" speed="0.40" angle="90.00" x="778.27" y="139.77"/>
        <vehicle id="2_1" eclass="HBEFA3/PC_G_EU4" CO2="2678.34" CO="158.88" HC="0.79" NOx="1.22" PMx="0.07" fuel="1.15" electricity="0.00" noise="60.49" route="routeright" type="2" waiting="0.00" lane="right_0" pos="279.90" speed="0.40" angle="90.00" x="882.29" y="136.47"/>
        <vehicle id="2_2" eclass="HBEFA3/PC_G_EU4" CO2="2655.18" CO="159.30" HC="0.79" NOx="1.21" PMx="0.06" fuel="1.14" electricity="0.00" noise="59.69" route="routeright" type="2" waiting="0.00" lane="right_1" pos="286.19" speed="0.35" angle="90.00" x="888.46" y="139.77"/>
        <vehicle id="2_3" eclass="HBEFA3/PC_G_EU4" CO2="2670.23" CO="159.74" HC="0.79" NOx="1.22" PMx="0.07" fuel="1.15" electricity="0.00" noise="60.47" route="routecenter" type="2" waiting="0.00" lane="center_0" pos="0.10" speed="0.34" angle="66.06" x="399.65" y="136.47"/>
        <vehicle id="2_4" eclass="HBEFA3/PC_G_EU4" CO2="2678.34" CO="158.88" HC="0.79" NOx="1.22" PMx="0.07" fuel="1.15" electricity="0.00" noise="60.49" route="routecenter" type="2" waiting="0.00" lane="center_1" pos="9.43" speed="0.40" angle="90.00" x="409.03" y="139.77"/>
        <vehicle id="3_0" eclass="HBEFA3/PC_G_EU4" CO2="2658.20" CO="159.16" HC="0.79" NOx="1.21" PMx="0.06" fuel="1.14" electricity="0.00" noise="59.79" route="routecenter" type="3" waiting="0.00" lane="center_0" pos="121.74" speed="0.36" angle="90.00" x="521.83" y="136.47"/>
        <vehicle id="3_1" eclass="HBEFA3/PC_G_EU4" CO2="2653.66" CO="159.89" HC="0.79" NOx="1.21" PMx="0.06" fuel="1.14" electricity="0.00" noise="59.77" route="routecenter" type="3" waiting="0.00" lane="center_1" pos="128.00" speed="0.31" angle="90.00" x="528.12" y="139.77"/>
        <vehicle id="3_2" eclass="HBEFA3/PC_G_EU4" CO2="2667.63" CO="158.95" HC="0.79" NOx="1.21" PMx="0.06" fuel="1.15" electricity="0.00" noise="60.11" route="routeleft" type="3" waiting="0.00" lane="left_0" pos="51.68" speed="0.38" angle="90.00" x="150.31" y="136.47"/>
        <vehicle id="3_3" eclass="HBEFA3/PC_G_EU4" CO2="2678.34" CO="158.88" HC="0.79" NOx="1.22" PMx="0.07" fuel="1.15" electricity="0.00" noise="60.49" route="routeleft" type="3" waiting="0.00" lane="left_1" pos="42.87" speed="0.40" angle="90.00" x="141.73" y="139.77"/>
        <vehicle id="3_4" eclass="HBEFA3/PC_G_EU4" CO2="2678.34" CO="158.88" HC="0.79" NOx="1.22" PMx="0.07" fuel="1.15" electricity="0.00" noise="60.49" route="routeleft" type="3" waiting="0.00" lane="left_0" pos="165.33" speed="0.40" angle="90.00" x="260.94" y="136.47"/>
        <vehicle id="4_0" eclass="HBEFA3/PC_G_EU4" CO2="2619.37" CO="159.69" HC="0.79" NOx="1.19" PMx="0.06" fuel="1.13" electricity="0.00" noise="57.88" route="routeleft" type="4" waiting="0.00" lane="left_1" pos="163.47" speed="0.28" angle="90.00" x="259.12" y="139.77"/>
        <vehicle id="4_1" eclass="HBEFA3/PC_G_EU4" CO2="2671.70" CO="159.58" HC="0.79" NOx="1.22" PMx="0.07" fuel="1.15" electricity="0.00" noise="60.47" route="routeleft" type="4" waiting="0.00" lane="left_0" pos="282.07" speed="0.35" angle="90.00" x="374.57" y="136.47"/>
        <vehicle id="4_2" eclass="HBEFA3/PC_G_EU4" CO2="2654.02" CO="159.27" HC="0.79" NOx="1.21" PMx="0.06" fuel="1.14" electricity="0.00" noise="59.63" route="routeleft" type="4" waiting="0.00" lane="left_1" pos="282.62" speed="0.35" angle="90.00" x="375.10" y="139.77"/>
        <vehicle id="4_3" eclass="HBEFA3/PC_G_EU4" CO2="2662.17" CO="159.42" HC="0.79" NOx="1.21" PMx="0.06" fuel="1.14" electricity="0.00" noise="60.02" route="routeinflow_highway" type="4" waiting="0.00" lane="inflow_highway_0" pos="10.92" speed="0.35" angle="90.00" x="10.92" y="136.47"/>
        <vehicle id="4_4" eclass="HBEFA3/PC_G_EU4" CO2="2678.34" CO="158.88" HC="0.79" NOx="1.22" PMx="0.07" fuel="1.15" electricity="0.00" noise="60.49" route="routeinflow_highway" type="4" waiting="0.00" lane="inflow_highway_1" pos="8.48" speed="0.40" angle="90.00" x="8.48" y="139.77"/>
    </timestep>
    <timestep time="0.80">
        <vehicle id="1_0" eclass="HBEFA3/PC_G_EU4" CO2="2685.35" CO="158.14" HC="0.78" NOx="1.22" PMx="0.07" fuel="1.15" electricity="0.00" noise="60.51" route="routediverge" type="1" waiting="0.00" lane="diverge_0" pos="12.09" speed="0.45" angle="135.00" x="614.50" y="124.59"/>
        <vehicle id="1_1" eclass="HBEFA3/PC_G_EU4" CO2="2701.24" CO="156.49" HC="0.78" NOx="1.22" PMx="0.06" fuel="1.16" electricity="0.00" noise="60.55" route="routediverge" type="1" waiting="0.00" lane="diverge_0" pos="119.19" speed="0.57" angle="135.00" x="686.17" y="52.91"/>
        <vehicle id="1_2" eclass="HBEFA3/PC_G_EU4" CO2="2705.18" CO="156.09" HC="0.77" NOx="1.23" PMx="0.06" fuel="1.16" electricity="0.00" noise="60.56" route="routeright" type="1" waiting="0.00" lane="right_0" pos="38.76" speed="0.59" angle="90.00" x="645.96" y="136.47"/>
        <vehicle id="1_3" eclass="HBEFA3/PC_G_EU4" CO2="2696.93" CO="156.94" HC="0.78" NOx="1.22" PMx="0.06" fuel="1.16" electricity="0.00" noise="60.54" route="routeright" type="1" waiting="0.00" lane="right_1" pos="44.72" speed="0.53" angle="90.00" x="651.81" y="139.77"/>
        <vehicle id="1_4" eclass="HBEFA3/PC_G_EU4" CO2="2688.00" CO="157.86" HC="0.78" NOx="1.22" PMx="0.07" fuel="1.16" electricity="0.00" noise="60.52" route="routeright" type="1" waiting="0.00" lane="right_0" pos="167.43" speed="0.47" angle="90.00" x="772.07" y="136.47"/>
        <vehicle id="2_0" eclass="HBEFA3/PC_G_EU4" CO2="2677.54" CO="155.97" HC="0.77" NOx="1.21" PMx="0.06" fuel="1.15" electricity="0.00" noise="59.84" route="routeright" type="2" waiting="0.00" lane="right_1" pos="173.87" speed="0.57" angle="90.00" x="778.38" y="139.77"/>
        <vehicle id="2_1" eclass="HBEFA3/PC_G_EU4" CO2="2667.49" CO="155.97" HC="0.77" NOx="1.21" PMx="0.06" fuel="1.15" electricity="0.00" noise="59.57" route="routeright" type="2" waiting="0.00" lane="right_0" pos="280.01" speed="0.56" angle="90.00" x="882.40" y="136.47"/>
        <vehicle id="2_2" eclass="HBEFA3/PC_G_EU4" CO2="2698.84" CO="156.74" HC="0.78" NOx="1.22" PMx="0.06" fuel="1.16" electricity="0.00" noise="60.55" route="routeright" type="2" waiting="0.00" lane="right_1" pos="286.30" speed="0.55" angle="90.00" x="888.57" y="139.77"/>
        <vehicle id="2_3" eclass="HBEFA3/PC_G_EU4" CO2="2669.08" CO="156.88" HC="0.78" NOx="1.21" PMx="0.06" fuel="1.15" electricity="0.00" noise="59.74" route="routecenter" type="2" waiting="0.00" lane="center_0" pos="0.20" speed="0.50" angle="67.03" x="399.75" y="136.47"/>
        <vehicle id="2_4" eclass="HBEFA3/PC_G_EU4" CO2="2706.10" CO="156.00" HC="0.77" NOx="1.23" PMx="0.06" fuel="1.16" electricity="0.00" noise="60.57" route="routecenter" type="2" waiting="0.00" lane="center_1" pos="9.55" speed="0.60" angle="90.00" x="409.15" y="139.77"/>
        <vehicle id="3_0" eclass="HBEFA3/PC_G_EU4" CO2="2690.56" CO="156.57" HC="0.78" NOx="1.22" PMx="0.06" fuel="1.16" electricity="0.00" noise="60.29" route="routecenter" type="3" waiting="0.00" lane="center_0" pos="121.85" speed="0.55" angle="90.00" x="521.94" y="136.47"/>
        <vehicle id="3_1" eclass="HBEFA3/PC_G_EU4" CO2="2693.89" CO="157.25" HC="0.78" NOx="1.22" PMx="0.06" fuel="1.16" electricity="0.00" noise="60.53" route="routecenter" type="3" waiting="0.00" lane="center_1" pos="128.10" speed="0.51" angle="90.00" x="528.22" y="139.77"/>
        <vehicle id="3_2" eclass="HBEFA3/PC_G_EU4" CO2="2678.60" CO="156.22" HC="0.77" NOx="1.21" PMx="0.06" fuel="1.15" electricity="0.00" noise="59.91" route="routeleft" type="3" waiting="0.00" lane="left_0" pos="51.79" speed="0.55" angle="90.00" x="150.42" y="136.47"/>
        <vehicle id="3_3" eclass="HBEFA3/PC_G_EU4" CO2="2694.66" CO="155.98" HC="0.77" NOx="1.22" PMx="0.06" fuel="1.16" electricity="0.00" noise="60.28" route="routeleft" type="3" waiting="0.00" lane="left_1" pos="42.99" speed="0.59" angle="90.00" x="141.84" y="139.77"/>
        <vehicle id="3_4" eclass="HBEFA3/PC_G_EU4" CO2="2660.72" CO="155.98" HC="0.77" NOx="1.21" PMx="0.06" fuel="1.14" electricity="0.00" noise="59.37" route="routeleft" type="3" waiting="0.00" lane="left_0" pos="165.44" speed="0.55" angle="90.00" x="261.04" y="136.47"/>
        <vehicle id="4_0" eclass="HBEFA3/PC_G_EU4" CO2="2656.94" CO="157.80" HC="0.78" NOx="1.21" PMx="0.06" fuel="1.14" electricity="0.00" noise="59.48" route="routeleft" type="4" waiting="0.00" lane="left_1" pos="163.55" speed="0.44" angle="90.00" x="259.20" y="139.77"/>
        <vehicle id="4_1" eclass="HBEFA3/PC_G_EU4" CO2="2668.13" CO="156.72" HC="0.78" NOx="1.21" PMx="0.06" fuel="1.15" electricity="0.00" noise="59.68" route="routeleft" type="4" waiting="0.00" lane="left_0" pos="282.17" speed="0.51" angle="90.00" x="374.67" y="136.47"/>
        <vehicle id="4_2" eclass="HBEFA3/PC_G_EU4" CO2="2682.86" CO="156.73" HC="0.78" NOx="1.22" PMx="0.06" fuel="1.15" electricity="0.00" noise="60.11" route="routeleft" type="4" waiting="0.00" lane="left_1" pos="282.73" speed="0.53" angle="90.00" x="375.21" y="139.77"/>
        <vehicle id="4_3" eclass="HBEFA3/PC_G_EU4" CO2="2699.05" CO="156.72" HC="0.78" NOx="1.22" PMx="0.06" fuel="1.16" electricity="0.00" noise="60.55" route="routeinflow_highway" type="4" waiting="0.00" lane="inflow_highway_0" pos="11.03" speed="0.55" angle="90.00" x="11.03" y="136.47"/>
        <vehicle id="4_4" eclass="HBEFA3/PC_G_EU4" CO2="2670.41" CO="155.97" HC="0.77" NOx="1.21" PMx="0.06" fuel="1.15" electricity="0.00" noise="59.65" route="routeinflow_highway" type="4" waiting="0.00" lane="inflow_highway_1" pos="8.59" speed="0.56" angle="90.00" x="8.59" y="139.77"/>
    </timestep>
    <timestep time="1.00">
        <vehicle id="1_0" eclass="HBEFA3/PC_G_EU4" CO2="2687.00" CO="155.20" HC="0.77" NOx="1.22" PMx="0.06" fuel="1.16" electricity="0.00" noise="59.97" route="routediverge" type="1" waiting="0.00" lane="diverge_0" pos="12.21" speed="0.62" angle="135.00" x="614.58" y="124.51"/>