<?xml version="1.0" encoding="UTF-8"?>

<!-- generated on Mon Nov 19 20:38:35 2018 by SUMO gui Version b'v0_31_0-812-g1d4338ab80'
<?xml version="1.0" encoding="UTF-8"?>

<configuration xmlns:xsi="http://www.w3.org/2001/XMLSchema-instance" xsi:noNamespaceSchemaLocation="http://sumo.dlr.de/xsd/sumoConfiguration.xsd">

    <input>
        <net-file value="/Users/barryfan/flow/flow/scenarios/debug/cfg/merge-baseline_20181119-2038341542688714.120002.net.xml"/>
        <route-files value="/Users/barryfan/flow/flow/scenarios/debug/cfg/merge-baseline_20181119-2038341542688714.120002.rou.xml"/>
        <additional-files value="/Users/barryfan/flow/flow/scenarios/debug/cfg/merge-baseline_20181119-2038341542688714.120002.add.xml"/>
    </input>

    <output>
        <emission-output value="./data/merge-baseline_20181119-2038341542688714.120002-emission.xml"/>
    </output>

    <time>
        <begin value="0"/>
        <step-length value="0.2"/>
    </time>

    <processing>
        <time-to-teleport value="-1"/>
    </processing>

    <report>
        <no-step-log value="true"/>
    </report>

    <traci_server>
        <remote-port value="63301"/>
    </traci_server>

    <gui_only>
        <gui-settings-file value="/Users/barryfan/flow/flow/scenarios/debug/cfg/merge-baseline_20181119-2038341542688714.120002.gui.cfg"/>
        <tracker-interval value="0.2"/>
    </gui_only>

</configuration>
-->

<emission-export xmlns:xsi="http://www.w3.org/2001/XMLSchema-instance" xsi:noNamespaceSchemaLocation="http://sumo.dlr.de/xsd/emission_file.xsd">
    <timestep time="0.00">
        <vehicle id="1_0" eclass="HBEFA3/PC_G_EU4" CO2="2624.72" CO="164.78" HC="0.81" NOx="1.20" PMx="0.07" fuel="1.13" electricity="0.00" noise="55.94" route="routeright" type="1" waiting="0.00" lane="right_0" pos="3.21" speed="0.00" angle="90.00" x="611.12" y="136.47"/>
        <vehicle id="1_1" eclass="HBEFA3/PC_G_EU4" CO2="2624.72" CO="164.78" HC="0.81" NOx="1.20" PMx="0.07" fuel="1.13" electricity="0.00" noise="55.94" route="routeright" type="1" waiting="0.00" lane="right_1" pos="0.00" speed="0.00" angle="90.00" x="607.98" y="139.77"/>
        <vehicle id="1_2" eclass="HBEFA3/PC_G_EU4" CO2="2624.72" CO="164.78" HC="0.81" NOx="1.20" PMx="0.07" fuel="1.13" electricity="0.00" noise="55.94" route="routeright" type="1" waiting="0.00" lane="right_0" pos="118.56" speed="0.00" angle="90.00" x="724.17" y="136.47"/>
        <vehicle id="1_3" eclass="HBEFA3/PC_G_EU4" CO2="2624.72" CO="164.78" HC="0.81" NOx="1.20" PMx="0.07" fuel="1.13" electricity="0.00" noise="55.94" route="routeright" type="1" waiting="0.00" lane="right_1" pos="120.42" speed="0.00" angle="90.00" x="726.00" y="139.77"/>
        <vehicle id="1_4" eclass="HBEFA3/PC_G_EU4" CO2="2624.72" CO="164.78" HC="0.81" NOx="1.20" PMx="0.07" fuel="1.13" electricity="0.00" noise="55.94" route="routeright" type="1" waiting="0.00" lane="right_0" pos="240.62" speed="0.00" angle="90.00" x="843.80" y="136.47"/>
        <vehicle id="2_0" eclass="HBEFA3/PC_G_EU4" CO2="2624.72" CO="164.78" HC="0.81" NOx="1.20" PMx="0.07" fuel="1.13" electricity="0.00" noise="55.94" route="routeright" type="2" waiting="0.00" lane="right_1" pos="237.80" speed="0.00" angle="90.00" x="841.03" y="139.77"/>
        <vehicle id="2_1" eclass="HBEFA3/PC_G_EU4" CO2="2624.72" CO="164.78" HC="0.81" NOx="1.20" PMx="0.07" fuel="1.13" electricity="0.00" noise="55.94" route="routeright" type="2" waiting="0.00" lane="right_0" pos="366.01" speed="0.00" angle="90.00" x="966.69" y="136.47"/>
        <vehicle id="2_2" eclass="HBEFA3/PC_G_EU4" CO2="2624.72" CO="164.78" HC="0.81" NOx="1.20" PMx="0.07" fuel="1.13" electricity="0.00" noise="55.94" route="routeright" type="2" waiting="0.00" lane="right_1" pos="354.49" speed="0.00" angle="90.00" x="955.40" y="139.77"/>
        <vehicle id="2_3" eclass="HBEFA3/PC_G_EU4" CO2="2624.72" CO="164.78" HC="0.81" NOx="1.20" PMx="0.07" fuel="1.13" electricity="0.00" noise="55.94" route="routecenter" type="2" waiting="0.00" lane="center_0" pos="69.37" speed="0.00" angle="90.00" x="469.23" y="136.47"/>
        <vehicle id="2_4" eclass="HBEFA3/PC_G_EU4" CO2="2624.72" CO="164.78" HC="0.81" NOx="1.20" PMx="0.07" fuel="1.13" electricity="0.00" noise="55.94" route="routecenter" type="2" waiting="0.00" lane="center_1" pos="79.87" speed="0.00" angle="90.00" x="479.78" y="139.77"/>
        <vehicle id="3_0" eclass="HBEFA3/PC_G_EU4" CO2="2624.72" CO="164.78" HC="0.81" NOx="1.20" PMx="0.07" fuel="1.13" electricity="0.00" noise="55.94" route="routeinflow_highway" type="3" waiting="0.00" lane="inflow_highway_0" pos="10.11" speed="0.00" angle="90.00" x="10.11" y="136.47"/>
        <vehicle id="3_1" eclass="HBEFA3/PC_G_EU4" CO2="2624.72" CO="164.78" HC="0.81" NOx="1.20" PMx="0.07" fuel="1.13" electricity="0.00" noise="55.94" route="routeinflow_highway" type="3" waiting="0.00" lane="inflow_highway_1" pos="6.94" speed="0.00" angle="90.00" x="6.94" y="139.77"/>
        <vehicle id="3_2" eclass="HBEFA3/PC_G_EU4" CO2="2624.72" CO="164.78" HC="0.81" NOx="1.20" PMx="0.07" fuel="1.13" electricity="0.00" noise="55.94" route="routediverge" type="3" waiting="0.00" lane="diverge_0" pos="27.46" speed="0.00" angle="135.00" x="624.78" y="114.31"/>
        <vehicle id="3_3" eclass="HBEFA3/PC_G_EU4" CO2="2624.72" CO="164.78" HC="0.81" NOx="1.20" PMx="0.07" fuel="1.13" electricity="0.00" noise="55.94" route="routediverge" type="3" waiting="0.00" lane="diverge_0" pos="141.48" speed="0.00" angle="135.00" x="701.09" y="38.00"/>
        <vehicle id="3_4" eclass="HBEFA3/PC_G_EU4" CO2="2624.72" CO="164.78" HC="0.81" NOx="1.20" PMx="0.07" fuel="1.13" electricity="0.00" noise="55.94" route="routemerge" type="3" waiting="0.00" lane="merge_0" pos="59.48" speed="0.00" angle="45.00" x="368.01" y="107.10"/>
        <vehicle id="4_0" eclass="HBEFA3/PC_G_EU4" CO2="2624.72" CO="164.78" HC="0.81" NOx="1.20" PMx="0.07" fuel="1.13" electricity="0.00" noise="55.94" route="routeleft" type="4" waiting="0.00" lane="left_0" pos="81.49" speed="0.00" angle="90.00" x="179.32" y="136.47"/>
        <vehicle id="4_1" eclass="HBEFA3/PC_G_EU4" CO2="2624.72" CO="164.78" HC="0.81" NOx="1.20" PMx="0.07" fuel="1.13" electricity="0.00" noise="55.94" route="routeleft" type="4" waiting="0.00" lane="left_1" pos="82.66" speed="0.00" angle="90.00" x="180.46" y="139.77"/>
        <vehicle id="4_2" eclass="HBEFA3/PC_G_EU4" CO2="2624.72" CO="164.78" HC="0.81" NOx="1.20" PMx="0.07" fuel="1.13" electricity="0.00" noise="55.94" route="routeleft" type="4" waiting="0.00" lane="left_0" pos="203.15" speed="0.00" angle="90.00" x="297.75" y="136.47"/>
        <vehicle id="4_3" eclass="HBEFA3/PC_G_EU4" CO2="2624.72" CO="164.78" HC="0.81" NOx="1.20" PMx="0.07" fuel="1.13" electricity="0.00" noise="55.94" route="routeleft" type="4" waiting="0.00" lane="left_1" pos="199.73" speed="0.00" angle="90.00" x="294.42" y="139.77"/>
        <vehicle id="4_4" eclass="HBEFA3/PC_G_EU4" CO2="2624.72" CO="164.78" HC="0.81" NOx="1.20" PMx="0.07" fuel="1.13" electricity="0.00" noise="55.94" route="routeinflow_merge" type="4" waiting="0.00" lane="inflow_merge_0" pos="20.18" speed="0.00" angle="45.00" x="274.02" y="13.10"/>
    </timestep>
    <timestep time="0.20">
        <vehicle id="1_0" eclass="HBEFA3/PC_G_EU4" CO2="2624.72" CO="164.78" HC="0.81" NOx="1.20" PMx="0.07" fuel="1.13" electricity="0.00" noise="55.94" route="routeright" type="1" waiting="0.00" lane="right_0" pos="3.21" speed="0.00" angle="90.00" x="611.12" y="136.47"/>
        <vehicle id="1_1" eclass="HBEFA3/PC_G_EU4" CO2="2624.72" CO="164.78" HC="0.81" NOx="1.20" PMx="0.07" fuel="1.13" electricity="0.00" noise="55.94" route="routeright" type="1" waiting="0.00" lane="right_1" pos="0.00" speed="0.00" angle="90.00" x="607.98" y="139.77"/>
        <vehicle id="1_2" eclass="HBEFA3/PC_G_EU4" CO2="2624.72" CO="164.78" HC="0.81" NOx="1.20" PMx="0.07" fuel="1.13" electricity="0.00" noise="55.94" route="routeright" type="1" waiting="0.00" lane="right_0" pos="118.56" speed="0.00" angle="90.00" x="724.17" y="136.47"/>
        <vehicle id="1_3" eclass="HBEFA3/PC_G_EU4" CO2="2624.72" CO="164.78" HC="0.81" NOx="1.20" PMx="0.07" fuel="1.13" electricity="0.00" noise="55.94" route="routeright" type="1" waiting="0.00" lane="right_1" pos="120.42" speed="0.00" angle="90.00" x="726.00" y="139.77"/>
        <vehicle id="1_4" eclass="HBEFA3/PC_G_EU4" CO2="2624.72" CO="164.78" HC="0.81" NOx="1.20" PMx="0.07" fuel="1.13" electricity="0.00" noise="55.94" route="routeright" type="1" waiting="0.00" lane="right_0" pos="240.62" speed="0.00" angle="90.00" x="843.80" y="136.47"/>
        <vehicle id="2_0" eclass="HBEFA3/PC_G_EU4" CO2="2624.72" CO="164.78" HC="0.81" NOx="1.20" PMx="0.07" fuel="1.13" electricity="0.00" noise="55.94" route="routeright" type="2" waiting="0.00" lane="right_1" pos="237.80" speed="0.00" angle="90.00" x="841.03" y="139.77"/>
        <vehicle id="2_1" eclass="HBEFA3/PC_G_EU4" CO2="2624.72" CO="164.78" HC="0.81" NOx="1.20" PMx="0.07" fuel="1.13" electricity="0.00" noise="55.94" route="routeright" type="2" waiting="0.00" lane="right_0" pos="366.01" speed="0.00" angle="90.00" x="966.69" y="136.47"/>
        <vehicle id="2_2" eclass="HBEFA3/PC_G_EU4" CO2="2624.72" CO="164.78" HC="0.81" NOx="1.20" PMx="0.07" fuel="1.13" electricity="0.00" noise="55.94" route="routeright" type="2" waiting="0.00" lane="right_1" pos="354.49" speed="0.00" angle="90.00" x="955.40" y="139.77"/>
        <vehicle id="2_3" eclass="HBEFA3/PC_G_EU4" CO2="2624.72" CO="164.78" HC="0.81" NOx="1.20" PMx="0.07" fuel="1.13" electricity="0.00" noise="55.94" route="routecenter" type="2" waiting="0.00" lane="center_0" pos="69.37" speed="0.00" angle="90.00" x="469.23" y="136.47"/>
        <vehicle id="2_4" eclass="HBEFA3/PC_G_EU4" CO2="2624.72" CO="164.78" HC="0.81" NOx="1.20" PMx="0.07" fuel="1.13" electricity="0.00" noise="55.94" route="routecenter" type="2" waiting="0.00" lane="center_1" pos="79.87" speed="0.00" angle="90.00" x="479.78" y="139.77"/>
        <vehicle id="3_0" eclass="HBEFA3/PC_G_EU4" CO2="2624.72" CO="164.78" HC="0.81" NOx="1.20" PMx="0.07" fuel="1.13" electricity="0.00" noise="55.94" route="routeinflow_highway" type="3" waiting="0.00" lane="inflow_highway_0" pos="10.11" speed="0.00" angle="90.00" x="10.11" y="136.47"/>
        <vehicle id="3_1" eclass="HBEFA3/PC_G_EU4" CO2="2624.72" CO="164.78" HC="0.81" NOx="1.20" PMx="0.07" fuel="1.13" electricity="0.00" noise="55.94" route="routeinflow_highway" type="3" waiting="0.00" lane="inflow_highway_1" pos="6.94" speed="0.00" angle="90.00" x="6.94" y="139.77"/>
        <vehicle id="3_2" eclass="HBEFA3/PC_G_EU4" CO2="2624.72" CO="164.78" HC="0.81" NOx="1.20" PMx="0.07" fuel="1.13" electricity="0.00" noise="55.94" route="routediverge" type="3" waiting="0.00" lane="diverge_0" pos="27.46" speed="0.00" angle="135.00" x="624.78" y="114.31"/>
        <vehicle id="3_3" eclass="HBEFA3/PC_G_EU4" CO2="2624.72" CO="164.78" HC="0.81" NOx="1.20" PMx="0.07" fuel="1.13" electricity="0.00" noise="55.94" route="routediverge" type="3" waiting="0.00" lane="diverge_0" pos="141.48" speed="0.00" angle="135.00" x="701.09" y="38.00"/>
        <vehicle id="3_4" eclass="HBEFA3/PC_G_EU4" CO2="2624.72" CO="164.78" HC="0.81" NOx="1.20" PMx="0.07" fuel="1.13" electricity="0.00" noise="55.94" route="routemerge" type="3" waiting="0.00" lane="merge_0" pos="59.48" speed="0.00" angle="45.00" x="368.01" y="107.10"/>
        <vehicle id="4_0" eclass="HBEFA3/PC_G_EU4" CO2="2624.72" CO="164.78" HC="0.81" NOx="1.20" PMx="0.07" fuel="1.13" electricity="0.00" noise="55.94" route="routeleft" type="4" waiting="0.00" lane="left_0" pos="81.49" speed="0.00" angle="90.00" x="179.32" y="136.47"/>
        <vehicle id="4_1" eclass="HBEFA3/PC_G_EU4" CO2="2624.72" CO="164.78" HC="0.81" NOx="1.20" PMx="0.07" fuel="1.13" electricity="0.00" noise="55.94" route="routeleft" type="4" waiting="0.00" lane="left_1" pos="82.66" speed="0.00" angle="90.00" x="180.46" y="139.77"/>
        <vehicle id="4_2" eclass="HBEFA3/PC_G_EU4" CO2="2624.72" CO="164.78" HC="0.81" NOx="1.20" PMx="0.07" fuel="1.13" electricity="0.00" noise="55.94" route="routeleft" type="4" waiting="0.00" lane="left_0" pos="203.15" speed="0.00" angle="90.00" x="297.75" y="136.47"/>
        <vehicle id="4_3" eclass="HBEFA3/PC_G_EU4" CO2="2624.72" CO="164.78" HC="0.81" NOx="1.20" PMx="0.07" fuel="1.13" electricity="0.00" noise="55.94" route="routeleft" type="4" waiting="0.00" lane="left_1" pos="199.73" speed="0.00" angle="90.00" x="294.42" y="139.77"/>
        <vehicle id="4_4" eclass="HBEFA3/PC_G_EU4" CO2="2624.72" CO="164.78" HC="0.81" NOx="1.20" PMx="0.07" fuel="1.13" electricity="0.00" noise="55.94" route="routeinflow_merge" type="4" waiting="0.00" lane="inflow_merge_0" pos="20.18" speed="0.00" angle="45.00" x="274.02" y="13.10"/>
    </timestep>
    <timestep time="0.40">
        <vehicle id="1_0" eclass="HBEFA3/PC_G_EU4" CO2="2651.22" CO="161.80" HC="0.80" NOx="1.21" PMx="0.07" fuel="1.14" electricity="0.00" noise="60.41" route="routeright" type="1" waiting="0.00" lane="right_0" pos="3.25" speed="0.20" angle="90.00" x="611.16" y="136.47"/>
        <vehicle id="1_1" eclass="HBEFA3/PC_G_EU4" CO2="2639.04" CO="162.17" HC="0.80" NOx="1.21" PMx="0.07" fuel="1.13" electricity="0.00" noise="59.63" route="routeright" type="1" waiting="0.00" lane="right_1" pos="0.03" speed="0.17" angle="90.00" x="608.01" y="139.77"/>
        <vehicle id="1_2" eclass="HBEFA3/PC_G_EU4" CO2="2648.22" CO="161.88" HC="0.80" NOx="1.21" PMx="0.07" fuel="1.14" electricity="0.00" noise="60.24" route="routeright" type="1" waiting="0.00" lane="right_0" pos="118.59" speed="0.19" angle="90.00" x="724.21" y="136.47"/>
        <vehicle id="1_3" eclass="HBEFA3/PC_G_EU4" CO2="2648.60" CO="161.87" HC="0.80" NOx="1.21" PMx="0.07" fuel="1.14" electricity="0.00" noise="60.26" route="routeright" type="1" waiting="0.00" lane="right_1" pos="120.46" speed="0.19" angle="90.00" x="726.04" y="139.77"/>
        <vehicle id="1_4" eclass="HBEFA3/PC_G_EU4" CO2="2651.22" CO="161.80" HC="0.80" NOx="1.21" PMx="0.07" fuel="1.14" electricity="0.00" noise="60.41" route="routeright" type="1" waiting="0.00" lane="right_0" pos="240.66" speed="0.20" angle="90.00" x="843.84" y="136.47"/>
        <vehicle id="2_0" eclass="HBEFA3/PC_G_EU4" CO2="2651.22" CO="161.80" HC="0.80" NOx="1.21" PMx="0.07" fuel="1.14" electricity="0.00" noise="60.41" route="routeright" type="2" waiting="0.00" lane="right_1" pos="237.84" speed="0.20" angle="90.00" x="841.07" y="139.77"/>
        <vehicle id="2_1" eclass="HBEFA3/PC_G_EU4" CO2="2640.13" CO="162.13" HC="0.80" NOx="1.21" PMx="0.07" fuel="1.13" electricity="0.00" noise="59.71" route="routeright" type="2" waiting="0.00" lane="right_0" pos="366.04" speed="0.17" angle="90.00" x="966.72" y="136.47"/>
        <vehicle id="2_2" eclass="HBEFA3/PC_G_EU4" CO2="2651.22" CO="161.80" HC="0.80" NOx="1.21" PMx="0.07" fuel="1.14" electricity="0.00" noise="60.41" route="routeright" type="2" waiting="0.00" lane="right_1" pos="354.53" speed="0.20" angle="90.00" x="955.44" y="139.77"/>
        <vehicle id="2_3" eclass="HBEFA3/PC_G_EU4" CO2="2641.47" CO="162.08" HC="0.80" NOx="1.21" PMx="0.07" fuel="1.14" electricity="0.00" noise="59.81" route="routecenter" type="2" waiting="0.00" lane="center_0" pos="69.40" speed="0.17" angle="90.00" x="469.27" y="136.47"/>
        <vehicle id="2_4" eclass="HBEFA3/PC_G_EU4" CO2="2649.54" CO="161.85" HC="0.80" NOx="1.21" PMx="0.07" fuel="1.14" electricity="0.00" noise="60.32" route="routecenter" type="2" waiting="0.00" lane="center_1" pos="79.91" speed="0.20" angle="90.00" x="479.82" y="139.77"/>
        <vehicle id="3_0" eclass="HBEFA3/PC_G_EU4" CO2="2651.22" CO="161.80" HC="0.80" NOx="1.21" PMx="0.07" fuel="1.14" electricity="0.00" noise="60.41" route="routeinflow_highway" type="3" waiting="0.00" lane="inflow_highway_0" pos="10.15" speed="0.20" angle="90.00" x="10.15" y="136.47"/>
        <vehicle id="3_1" eclass="HBEFA3/PC_G_EU4" CO2="2643.68" CO="162.01" HC="0.80" NOx="1.21" PMx="0.07" fuel="1.14" electricity="0.00" noise="59.96" route="routeinflow_highway" type="3" waiting="0.00" lane="inflow_highway_1" pos="6.97" speed="0.18" angle="90.00" x="6.97" y="139.77"/>
        <vehicle id="3_2" eclass="HBEFA3/PC_G_EU4" CO2="2651.22" CO="161.80" HC="0.80" NOx="1.21" PMx="0.07" fuel="1.14" electricity="0.00" noise="60.41" route="routediverge" type="3" waiting="0.00" lane="diverge_0" pos="27.50" speed="0.20" angle="135.00" x="624.81" y="114.28"/>
        <vehicle id="3_3" eclass="HBEFA3/PC_G_EU4" CO2="2651.22" CO="161.80" HC="0.80" NOx="1.21" PMx="0.07" fuel="1.14" electricity="0.00" noise="60.41" route="routediverge" type="3" waiting="0.00" lane="diverge_0" pos="141.52" speed="0.20" angle="135.00" x="701.11" y="37.97"/>
        <vehicle id="3_4" eclass="HBEFA3/PC_G_EU4" CO2="2635.22" CO="162.32" HC="0.80" NOx="1.21" PMx="0.07" fuel="1.13" electricity="0.00" noise="59.33" route="routemerge" type="3" waiting="0.00" lane="merge_0" pos="59.51" speed="0.15" angle="45.00" x="368.03" y="107.12"/>
        <vehicle id="4_0" eclass="HBEFA3/PC_G_EU4" CO2="2651.22" CO="161.80" HC="0.80" NOx="1.21" PMx="0.07" fuel="1.14" electricity="0.00" noise="60.41" route="routeleft" type="4" waiting="0.00" lane="left_0" pos="81.53" speed="0.20" angle="90.00" x="179.36" y="136.47"/>
        <vehicle id="4_1" eclass="HBEFA3/PC_G_EU4" CO2="2649.76" CO="161.84" HC="0.80" NOx="1.21" PMx="0.07" fuel="1.14" electricity="0.00" noise="60.33" route="routeleft" type="4" waiting="0.00" lane="left_1" pos="82.70" speed="0.20" angle="90.00" x="180.50" y="139.77"/>
        <vehicle id="4_2" eclass="HBEFA3/PC_G_EU4" CO2="2640.41" CO="162.12" HC="0.80" NOx="1.21" PMx="0.07" fuel="1.14" electricity="0.00" noise="59.73" route="routeleft" type="4" waiting="0.00" lane="left_0" pos="203.19" speed="0.17" angle="90.00" x="297.78" y="136.47"/>
        <vehicle id="4_3" eclass="HBEFA3/PC_G_EU4" CO2="2651.22" CO="161.80" HC="0.80" NOx="1.21" PMx="0.07" fuel="1.14" electricity="0.00" noise="60.41" route="routeleft" type="4" waiting="0.00" lane="left_1" pos="199.77" speed="0.20" angle="90.00" x="294.46" y="139.77"/>
        <vehicle id="4_4" eclass="HBEFA3/PC_G_EU4" CO2="2651.22" CO="161.80" HC="0.80" NOx="1.21" PMx="0.07" fuel="1.14" electricity="0.00" noise="60.41" route="!4_4!var#1" type="4" waiting="0.00" lane="inflow_merge_0" pos="20.22" speed="0.20" angle="45.00" x="274.05" y="13.13"/>
    </timestep>
    <timestep time="0.60">
        <vehicle id="1_0" eclass="HBEFA3/PC_G_EU4" CO2="2678.34" CO="158.88" HC="0.79" NOx="1.22" PMx="0.07" fuel="1.15" electricity="0.00" noise="60.49" route="routeright" type="1" waiting="0.00" lane="right_0" pos="3.33" speed="0.40" angle="90.00" x="611.24" y="136.47"/>
        <vehicle id="1_1" eclass="HBEFA3/PC_G_EU4" CO2="2673.56" CO="159.39" HC="0.79" NOx="1.22" PMx="0.07" fuel="1.15" electricity="0.00" noise="60.48" route="routeright" type="1" waiting="0.00" lane="right_1" pos="0.11" speed="0.37" angle="90.00" x="608.08" y="139.77"/>
        <vehicle id="1_2" eclass="HBEFA3/PC_G_EU4" CO2="2677.27" CO="158.99" HC="0.79" NOx="1.22" PMx="0.07" fuel="1.15" electricity="0.00" noise="60.49" route="routeright" type="1" waiting="0.00" lane="right_0" pos="118.67" speed="0.39" angle="90.00" x="724.28" y="136.47"/>
        <vehicle id="1_3" eclass="HBEFA3/PC_G_EU4" CO2="2677.41" CO="158.98" HC="0.79" NOx="1.22" PMx="0.07" fuel="1.15" electricity="0.00" noise="60.49" route="routeright" type="1" waiting="0.00" lane="right_1" pos="120.54" speed="0.39" angle="90.00" x="726.12" y="139.77"/>
        <vehicle id="1_4" eclass="HBEFA3/PC_G_EU4" CO2="2673.90" CO="158.91" HC="0.79" NOx="1.22" PMx="0.07" fuel="1.15" electricity="0.00" noise="60.34" route="routeright" type="1" waiting="0.00" lane="right_0" pos="240.74" speed="0.39" angle="90.00" x="843.92" y="136.47"/>
        <vehicle id="2_0" eclass="HBEFA3/PC_G_EU4" CO2="2657.21" CO="159.04" HC="0.79" NOx="1.21" PMx="0.06" fuel="1.14" electricity="0.00" noise="59.72" route="routeright" type="2" waiting="0.00" lane="right_1" pos="237.91" speed="0.37" angle="90.00" x="841.14" y="139.77"/>
        <vehicle id="2_1" eclass="HBEFA3/PC_G_EU4" CO2="2674.05" CO="159.33" HC="0.79" NOx="1.22" PMx="0.07" fuel="1.15" electricity="0.00" noise="60.48" route="routeright" type="2" waiting="0.00" lane="right_0" pos="366.12" speed="0.37" angle="90.00" x="966.79" y="136.47"/>
        <vehicle id="2_2" eclass="HBEFA3/PC_G_EU4" CO2="2645.13" CO="159.18" HC="0.79" NOx="1.20" PMx="0.06" fuel="1.14" electricity="0.00" noise="59.22" route="routeright" type="2" waiting="0.00" lane="right_1" pos="354.60" speed="0.34" angle="90.00" x="955.51" y="139.77"/>
        <vehicle id="2_3" eclass="HBEFA3/PC_G_EU4" CO2="2674.62" CO="159.27" HC="0.79" NOx="1.22" PMx="0.07" fuel="1.15" electricity="0.00" noise="60.48" route="routecenter" type="2" waiting="0.00" lane="center_0" pos="69.48" speed="0.37" angle="90.00" x="469.34" y="136.47"/>
        <vehicle id="2_4" eclass="HBEFA3/PC_G_EU4" CO2="2677.75" CO="158.94" HC="0.79" NOx="1.22" PMx="0.07" fuel="1.15" electricity="0.00" noise="60.49" route="routecenter" type="2" waiting="0.00" lane="center_1" pos="79.99" speed="0.40" angle="90.00" x="479.90" y="139.77"/>
        <vehicle id="3_0" eclass="HBEFA3/PC_G_EU4" CO2="2678.34" CO="158.88" HC="0.79" NOx="1.22" PMx="0.07" fuel="1.15" electricity="0.00" noise="60.49" route="routeinflow_highway" type="3" waiting="0.00" lane="inflow_highway_0" pos="10.23" speed="0.40" angle="90.00" x="10.23" y="136.47"/>
        <vehicle id="3_1" eclass="HBEFA3/PC_G_EU4" CO2="2634.64" CO="159.68" HC="0.79" NOx="1.20" PMx="0.06" fuel="1.13" electricity="0.00" noise="58.76" route="routeinflow_highway" type="3" waiting="0.00" lane="inflow_highway_1" pos="7.03" speed="0.30" angle="90.00" x="7.03" y="139.77"/>
        <vehicle id="3_2" eclass="HBEFA3/PC_G_EU4" CO2="2678.34" CO="158.88" HC="0.79" NOx="1.22" PMx="0.07" fuel="1.15" electricity="0.00" noise="60.49" route="routediverge" type="3" waiting="0.00" lane="diverge_0" pos="27.58" speed="0.40" angle="135.00" x="624.86" y="114.22"/>
        <vehicle id="3_3" eclass="HBEFA3/PC_G_EU4" CO2="2668.99" CO="158.94" HC="0.79" NOx="1.21" PMx="0.06" fuel="1.15" electricity="0.00" noise="60.16" route="routediverge" type="3" waiting="0.00" lane="diverge_0" pos="141.60" speed="0.39" angle="135.00" x="701.17" y="37.92"/>
        <vehicle id="3_4" eclass="HBEFA3/PC_G_EU4" CO2="2671.74" CO="159.58" HC="0.79" NOx="1.22" PMx="0.07" fuel="1.15" electricity="0.00" noise="60.47" route="routemerge" type="3" waiting="0.00" lane="merge_0" pos="59.58" speed="0.35" angle="45.00" x="368.08" y="107.16"/>
        <vehicle id="4_0" eclass="HBEFA3/PC_G_EU4" CO2="2644.27" CO="159.19" HC="0.79" NOx="1.20" PMx="0.06" fuel="1.14" electricity="0.00" noise="59.18" route="routeleft" type="4" waiting="0.00" lane="left_0" pos="81.60" speed="0.34" angle="90.00" x="179.43" y="136.47"/>
        <vehicle id="4_1" eclass="HBEFA3/PC_G_EU4" CO2="2677.83" CO="158.93" HC="0.79" NOx="1.22" PMx="0.07" fuel="1.15" electricity="0.00" noise="60.49" route="routeleft" type="4" waiting="0.00" lane="left_1" pos="82.78" speed="0.40" angle="90.00" x="180.58" y="139.77"/>
        <vehicle id="4_2" eclass="HBEFA3/PC_G_EU4" CO2="2674.17" CO="159.32" HC="0.79" NOx="1.22" PMx="0.07" fuel="1.15" electricity="0.00" noise="60.48" route="routeleft" type="4" waiting="0.00" lane="left_0" pos="203.26" speed="0.37" angle="90.00" x="297.85" y="136.47"/>
        <vehicle id="4_3" eclass="HBEFA3/PC_G_EU4" CO2="2678.34" CO="158.88" HC="0.79" NOx="1.22" PMx="0.07" fuel="1.15" electricity="0.00" noise="60.49" route="routeleft" type="4" waiting="0.00" lane="left_1" pos="199.85" speed="0.40" angle="90.00" x="294.54" y="139.77"/>
        <vehicle id="4_4" eclass="HBEFA3/PC_G_EU4" CO2="2642.81" CO="159.21" HC="0.79" NOx="1.20" PMx="0.06" fuel="1.14" electricity="0.00" noise="59.11" route="!4_4!var#1" type="4" waiting="0.00" lane="inflow_merge_0" pos="20.29" speed="0.34" angle="45.00" x="274.09" y="13.17"/>
    </timestep>
    <timestep time="0.80">
        <vehicle id="1_0" eclass="HBEFA3/PC_G_EU4" CO2="2704.31" CO="155.99" HC="0.77" NOx="1.23" PMx="0.06" fuel="1.16" electricity="0.00" noise="60.52" route="routeright" type="1" waiting="0.00" lane="right_0" pos="3.45" speed="0.60" angle="90.00" x="611.36" y="136.47"/>
        <vehicle id="1_1" eclass="HBEFA3/PC_G_EU4" CO2="2687.59" CO="156.49" HC="0.78" NOx="1.22" PMx="0.06" fuel="1.16" electricity="0.00" noise="60.20" route="routeright" type="1" waiting="0.00" lane="right_1" pos="0.22" speed="0.55" angle="90.00" x="608.19" y="139.77"/>
        <vehicle id="1_2" eclass="HBEFA3/PC_G_EU4" CO2="2694.68" CO="156.09" HC="0.77" NOx="1.22" PMx="0.06" fuel="1.16" electricity="0.00" noise="60.31" route="routeright" type="1" waiting="0.00" lane="right_0" pos="118.79" speed="0.58" angle="90.00" x="724.40" y="136.47"/>
        <vehicle id="1_3" eclass="HBEFA3/PC_G_EU4" CO2="2705.14" CO="156.10" HC="0.77" NOx="1.23" PMx="0.06" fuel="1.16" electricity="0.00" noise="60.56" route="routeright" type="1" waiting="0.00" lane="right_1" pos="120.66" speed="0.59" angle="90.00" x="726.23" y="139.77"/>
        <vehicle id="1_4" eclass="HBEFA3/PC_G_EU4" CO2="2632.57" CO="156.18" HC="0.77" NOx="1.19" PMx="0.06" fuel="1.13" electricity="0.00" noise="58.52" route="routeright" type="1" waiting="0.00" lane="right_0" pos="240.84" speed="0.50" angle="90.00" x="844.02" y="136.47"/>
        <vehicle id="2_0" eclass="HBEFA3/PC_G_EU4" CO2="2691.81" CO="156.49" HC="0.78" NOx="1.22" PMx="0.06" fuel="1.16" electricity="0.00" noise="60.31" route="routeright" type="2" waiting="0.00" lane="right_1" pos="238.02" speed="0.55" angle="90.00" x="841.25" y="139.77"/>
        <vehicle id="2_1" eclass="HBEFA3/PC_G_EU4" CO2="2659.70" CO="156.47" HC="0.77" NOx="1.21" PMx="0.06" fuel="1.14" electricity="0.00" noise="59.40" route="routeright" type="2" waiting="0.00" lane="right_0" pos="366.22" speed="0.52" angle="90.00" x="966.89" y="136.47"/>
        <vehicle id="2_2" eclass="HBEFA3/PC_G_EU4" CO2="2698.14" CO="156.81" HC="0.78" NOx="1.22" PMx="0.06" fuel="1.16" electricity="0.00" noise="60.54" route="routeright" type="2" waiting="0.00" lane="right_1" pos="354.71" speed="0.54" angle="90.00" x="955.61" y="139.77"/>
        <vehicle id="2_3" eclass="HBEFA3/PC_G_EU4" CO2="2702.29" CO="156.39" HC="0.78" NOx="1.23" PMx="0.06" fuel="1.16" electricity="0.00" noise="60.56" route="routecenter" type="2" waiting="0.00" lane="center_0" pos="69.59" speed="0.57" angle="90.00" x="469.46" y="136.47"/>
        <vehicle id="2_4" eclass="HBEFA3/PC_G_EU4" CO2="2689.20" CO="156.04" HC="0.77" NOx="1.22" PMx="0.06" fuel="1.16" electricity="0.00" noise="60.16" route="routecenter" type="2" waiting="0.00" lane="center_1" pos="80.11" speed="0.58" angle="90.00" x="480.02" y="139.77"/>
        <vehicle id="3_0" eclass="HBEFA3/PC_G_EU4" CO2="2706.10" CO="156.00" HC="0.77" NOx="1.23" PMx="0.06" fuel="1.16" electricity="0.00" noise="60.57" route="routeinflow_highway" type="3" waiting="0.00" lane="inflow_highway_0" pos="10.35" speed="0.60" angle="90.00" x="10.35" y="136.47"/>
        <vehicle id="3_1" eclass="HBEFA3/PC_G_EU4" CO2="2682.15" CO="157.42" HC="0.78" NOx="1.22" PMx="0.06" fuel="1.15" electricity="0.00" noise="60.23" route="routeinflow_highway" type="3" waiting="0.00" lane="inflow_highway_1" pos="7.13" speed="0.49" angle="90.00" x="7.13" y="139.77"/>
        <vehicle id="3_2" eclass="HBEFA3/PC_G_EU4" CO2="2704.34" CO="155.99" HC="0.77" NOx="1.23" PMx="0.06" fuel="1.16" electricity="0.00" noise="60.52" route="routediverge" type="3" waiting="0.00" lane="diverge_0" pos="27.70" speed="0.60" angle="135.00" x="624.94" y="114.14"/>
        <vehicle id="3_3" eclass="HBEFA3/PC_G_EU4" CO2="2701.34" CO="156.20" HC="0.77" NOx="1.22" PMx="0.06" fuel="1.16" electricity="0.00" noise="60.49" route="routediverge" type="3" waiting="0.00" lane="diverge_0" pos="141.71" speed="0.58" angle="135.00" x="701.24" y="37.84"/>
        <vehicle id="3_4" eclass="HBEFA3/PC_G_EU4" CO2="2676.06" CO="156.70" HC="0.78" NOx="1.21" PMx="0.06" fuel="1.15" electricity="0.00" noise="59.91" route="routemerge" type="3" waiting="0.00" lane="merge_0" pos="59.69" speed="0.52" angle="45.00" x="368.14" y="107.23"/>
        <vehicle id="4_0" eclass="HBEFA3/PC_G_EU4" CO2="2697.90" CO="156.84" HC="0.78" NOx="1.22" PMx="0.06" fuel="1.16" electricity="0.00" noise="60.54" route="routeleft" type="4" waiting="0.00" lane="left_0" pos="81.71" speed="0.54" angle="90.00" x="179.54" y="136.47"/>
        <vehicle id="4_1" eclass="HBEFA3/PC_G_EU4" CO2="2694.47" CO="156.03" HC="0.77" NOx="1.22" PMx="0.06" fuel="1.16" electricity="0.00" noise="60.29" route="routeleft" type="4" waiting="0.00" lane="left_1" pos="82.90" speed="0.58" angle="90.00" x="180.69" y="139.77"/>
        <vehicle id="4_2" eclass="HBEFA3/PC_G_EU4" CO2="2701.83" CO="156.43" HC="0.78" NOx="1.23" PMx="0.06" fuel="1.16" electricity="0.00" noise="60.55" route="routeleft" type="4" waiting="0.00" lane="left_0" pos="203.37" speed="0.57" angle="90.00" x="297.96" y="136.47"/>
        <vehicle id="4_3" eclass="HBEFA3/PC_G_EU4" CO2="2706.10" CO="156.00" HC="0.77" NOx="1.23" PMx="0.06" fuel="1.16" electricity="0.00" noise="60.57" route="routeleft" type="4" waiting="0.00" lane="left_1" pos="199.97" speed="0.60" angle="90.00" x="294.65" y="139.77"/>
        <vehicle id="4_4" eclass="HBEFA3/PC_G_EU4" CO2="2688.59" CO="156.88" HC="0.78" NOx="1.22" PMx="0.06" fuel="1.16" electricity="0.00" noise="60.30" route="!4_4!var#1" type="4" waiting="0.00" lane="inflow_merge_0" pos="20.39" speed="0.53" angle="45.00" x="274.17" y="13.25"/>
    </timestep>
    <timestep time="1.00">
        <vehicle id="1_0" eclass="HBEFA3/PC_G_EU4" CO2="2734.19" CO="153.19" HC="0.76" NOx="1.23" PMx="0.06" fuel="1.18" electricity="0.00" noise="60.64" route="routeright" type="1" waiting="0.00" lane="right_0" pos="3.61" speed="0.80" angle="90.00" x="611.51" y="136.47"/>