<?xml version="1.0" encoding="UTF-8"?>

<!-- generated on Wed Nov 21 14:09:53 2018 by SUMO gui Version b'v0_31_0-812-g1d4338ab80'
<?xml version="1.0" encoding="UTF-8"?>

<configuration xmlns:xsi="http://www.w3.org/2001/XMLSchema-instance" xsi:noNamespaceSchemaLocation="http://sumo.dlr.de/xsd/sumoConfiguration.xsd">

    <input>
        <net-file value="/Users/barryfan/flow/flow/scenarios/debug/cfg/merge-baseline_20181121-1409521542838192.057868.net.xml"/>
        <route-files value="/Users/barryfan/flow/flow/scenarios/debug/cfg/merge-baseline_20181121-1409521542838192.057868.rou.xml"/>
        <additional-files value="/Users/barryfan/flow/flow/scenarios/debug/cfg/merge-baseline_20181121-1409521542838192.057868.add.xml"/>
    </input>

    <output>
        <emission-output value="./data/merge-baseline_20181121-1409521542838192.057868-emission.xml"/>
    </output>

    <time>
        <begin value="0"/>
        <step-length value="0.2"/>
    </time>

    <processing>
        <lateral-resolution value="0.2"/>
        <time-to-teleport value="-1"/>
    </processing>

    <report>
        <no-step-log value="true"/>
    </report>

    <traci_server>
        <remote-port value="57596"/>
    </traci_server>

    <gui_only>
        <gui-settings-file value="/Users/barryfan/flow/flow/scenarios/debug/cfg/merge-baseline_20181121-1409521542838192.057868.gui.cfg"/>
        <tracker-interval value="0.2"/>
    </gui_only>

</configuration>
-->

<emission-export xmlns:xsi="http://www.w3.org/2001/XMLSchema-instance" xsi:noNamespaceSchemaLocation="http://sumo.dlr.de/xsd/emission_file.xsd">
    <timestep time="0.00">
        <vehicle id="1_0" eclass="HBEFA3/PC_G_EU4" CO2="2624.72" CO="164.78" HC="0.81" NOx="1.20" PMx="0.07" fuel="1.13" electricity="0.00" noise="55.94" route="routeinflow_highway" type="1" waiting="0.00" lane="inflow_highway_0" pos="4.22" speed="0.00" angle="90.00" x="4.22" y="136.47"/>
        <vehicle id="1_1" eclass="HBEFA3/PC_G_EU4" CO2="2624.72" CO="164.78" HC="0.81" NOx="1.20" PMx="0.07" fuel="1.13" electricity="0.00" noise="55.94" route="routeinflow_highway" type="1" waiting="0.00" lane="inflow_highway_1" pos="4.17" speed="0.00" angle="90.00" x="4.17" y="139.77"/>
        <vehicle id="1_2" eclass="HBEFA3/PC_G_EU4" CO2="2624.72" CO="164.78" HC="0.81" NOx="1.20" PMx="0.07" fuel="1.13" electricity="0.00" noise="55.94" route="routemerge" type="1" waiting="0.00" lane="merge_0" pos="21.47" speed="0.00" angle="45.00" x="344.02" y="83.10"/>
        <vehicle id="1_3" eclass="HBEFA3/PC_G_EU4" CO2="2624.72" CO="164.78" HC="0.81" NOx="1.20" PMx="0.07" fuel="1.13" electricity="0.00" noise="55.94" route="routeright" type="1" waiting="0.00" lane="right_0" pos="42.21" speed="0.00" angle="90.00" x="649.35" y="136.47"/>
        <vehicle id="1_4" eclass="HBEFA3/PC_G_EU4" CO2="2624.72" CO="164.78" HC="0.81" NOx="1.20" PMx="0.07" fuel="1.13" electricity="0.00" noise="55.94" route="routeright" type="1" waiting="0.00" lane="right_1" pos="46.36" speed="0.00" angle="90.00" x="653.41" y="139.77"/>
        <vehicle id="2_0" eclass="HBEFA3/PC_G_EU4" CO2="2624.72" CO="164.78" HC="0.81" NOx="1.20" PMx="0.07" fuel="1.13" electricity="0.00" noise="55.94" route="routeright" type="2" waiting="0.00" lane="right_0" pos="177.97" speed="0.00" angle="90.00" x="782.40" y="136.47"/>
        <vehicle id="2_1" eclass="HBEFA3/PC_G_EU4" CO2="2624.72" CO="164.78" HC="0.81" NOx="1.20" PMx="0.07" fuel="1.13" electricity="0.00" noise="55.94" route="routeright" type="2" waiting="0.00" lane="right_1" pos="161.49" speed="0.00" angle="90.00" x="766.25" y="139.77"/>
        <vehicle id="2_2" eclass="HBEFA3/PC_G_EU4" CO2="2624.72" CO="164.78" HC="0.81" NOx="1.20" PMx="0.07" fuel="1.13" electricity="0.00" noise="55.94" route="routeright" type="2" waiting="0.00" lane="right_0" pos="290.26" speed="0.00" angle="90.00" x="892.45" y="136.47"/>
        <vehicle id="2_3" eclass="HBEFA3/PC_G_EU4" CO2="2624.72" CO="164.78" HC="0.81" NOx="1.20" PMx="0.07" fuel="1.13" electricity="0.00" noise="55.94" route="routeright" type="2" waiting="0.00" lane="right_1" pos="282.18" speed="0.00" angle="90.00" x="884.53" y="139.77"/>
        <vehicle id="2_4" eclass="HBEFA3/PC_G_EU4" CO2="2624.72" CO="164.78" HC="0.81" NOx="1.20" PMx="0.07" fuel="1.13" electricity="0.00" noise="55.94" route="routeleft" type="2" waiting="0.00" lane="left_0" pos="9.73" speed="0.00" angle="90.00" x="109.47" y="136.47"/>
        <vehicle id="3_0" eclass="HBEFA3/PC_G_EU4" CO2="2624.72" CO="164.78" HC="0.81" NOx="1.20" PMx="0.07" fuel="1.13" electricity="0.00" noise="55.94" route="routeleft" type="3" waiting="0.00" lane="left_1" pos="2.06" speed="0.00" angle="90.00" x="102.01" y="139.77"/>
        <vehicle id="3_1" eclass="HBEFA3/PC_G_EU4" CO2="2624.72" CO="164.78" HC="0.81" NOx="1.20" PMx="0.07" fuel="1.13" electricity="0.00" noise="55.94" route="routeleft" type="3" waiting="0.00" lane="left_0" pos="126.84" speed="0.00" angle="90.00" x="223.47" y="136.47"/>
        <vehicle id="3_2" eclass="HBEFA3/PC_G_EU4" CO2="2624.72" CO="164.78" HC="0.81" NOx="1.20" PMx="0.07" fuel="1.13" electricity="0.00" noise="55.94" route="routeleft" type="3" waiting="0.00" lane="left_1" pos="127.27" speed="0.00" angle="90.00" x="223.88" y="139.77"/>
        <vehicle id="3_3" eclass="HBEFA3/PC_G_EU4" CO2="2624.72" CO="164.78" HC="0.81" NOx="1.20" PMx="0.07" fuel="1.13" electricity="0.00" noise="55.94" route="routeleft" type="3" waiting="0.00" lane="left_0" pos="243.39" speed="0.00" angle="90.00" x="336.92" y="136.47"/>
        <vehicle id="3_4" eclass="HBEFA3/PC_G_EU4" CO2="2624.72" CO="164.78" HC="0.81" NOx="1.20" PMx="0.07" fuel="1.13" electricity="0.00" noise="55.94" route="routeleft" type="3" waiting="0.00" lane="left_1" pos="247.15" speed="0.00" angle="90.00" x="340.57" y="139.77"/>
        <vehicle id="4_0" eclass="HBEFA3/PC_G_EU4" CO2="2624.72" CO="164.78" HC="0.81" NOx="1.20" PMx="0.07" fuel="1.13" electricity="0.00" noise="55.94" route="routeinflow_merge" type="4" waiting="0.00" lane="inflow_merge_0" pos="67.85" speed="0.00" angle="45.00" x="307.72" y="46.80"/>
        <vehicle id="4_1" eclass="HBEFA3/PC_G_EU4" CO2="2624.72" CO="164.78" HC="0.81" NOx="1.20" PMx="0.07" fuel="1.13" electricity="0.00" noise="55.94" route="routecenter" type="4" waiting="0.00" lane="center_0" pos="72.87" speed="0.00" angle="90.00" x="472.75" y="136.47"/>
        <vehicle id="4_2" eclass="HBEFA3/PC_G_EU4" CO2="2624.72" CO="164.78" HC="0.81" NOx="1.20" PMx="0.07" fuel="1.13" electricity="0.00" noise="55.94" route="routecenter" type="4" waiting="0.00" lane="center_1" pos="77.91" speed="0.00" angle="90.00" x="477.81" y="139.77"/>
        <vehicle id="4_3" eclass="HBEFA3/PC_G_EU4" CO2="2624.72" CO="164.78" HC="0.81" NOx="1.20" PMx="0.07" fuel="1.13" electricity="0.00" noise="55.94" route="routediverge" type="4" waiting="0.00" lane="diverge_0" pos="9.08" speed="0.00" angle="135.00" x="612.49" y="126.60"/>
        <vehicle id="4_4" eclass="HBEFA3/PC_G_EU4" CO2="2624.72" CO="164.78" HC="0.81" NOx="1.20" PMx="0.07" fuel="1.13" electricity="0.00" noise="55.94" route="routediverge" type="4" waiting="0.00" lane="diverge_0" pos="124.13" speed="0.00" angle="135.00" x="689.48" y="49.61"/>
    </timestep>
    <timestep time="0.20">
        <vehicle id="1_0" eclass="HBEFA3/PC_G_EU4" CO2="2624.72" CO="164.78" HC="0.81" NOx="1.20" PMx="0.07" fuel="1.13" electricity="0.00" noise="55.94" route="routeinflow_highway" type="1" waiting="0.00" lane="inflow_highway_0" pos="4.22" speed="0.00" angle="90.00" x="4.22" y="136.47"/>
        <vehicle id="1_1" eclass="HBEFA3/PC_G_EU4" CO2="2624.72" CO="164.78" HC="0.81" NOx="1.20" PMx="0.07" fuel="1.13" electricity="0.00" noise="55.94" route="routeinflow_highway" type="1" waiting="0.00" lane="inflow_highway_1" pos="4.17" speed="0.00" angle="90.00" x="4.17" y="139.77"/>
        <vehicle id="1_2" eclass="HBEFA3/PC_G_EU4" CO2="2624.72" CO="164.78" HC="0.81" NOx="1.20" PMx="0.07" fuel="1.13" electricity="0.00" noise="55.94" route="routemerge" type="1" waiting="0.00" lane="merge_0" pos="21.47" speed="0.00" angle="45.00" x="344.02" y="83.10"/>
        <vehicle id="1_3" eclass="HBEFA3/PC_G_EU4" CO2="2624.72" CO="164.78" HC="0.81" NOx="1.20" PMx="0.07" fuel="1.13" electricity="0.00" noise="55.94" route="routeright" type="1" waiting="0.00" lane="right_0" pos="42.21" speed="0.00" angle="90.00" x="649.35" y="136.47"/>
        <vehicle id="1_4" eclass="HBEFA3/PC_G_EU4" CO2="2624.72" CO="164.78" HC="0.81" NOx="1.20" PMx="0.07" fuel="1.13" electricity="0.00" noise="55.94" route="routeright" type="1" waiting="0.00" lane="right_1" pos="46.36" speed="0.00" angle="90.00" x="653.41" y="139.77"/>
        <vehicle id="2_0" eclass="HBEFA3/PC_G_EU4" CO2="2624.72" CO="164.78" HC="0.81" NOx="1.20" PMx="0.07" fuel="1.13" electricity="0.00" noise="55.94" route="routeright" type="2" waiting="0.00" lane="right_0" pos="177.97" speed="0.00" angle="90.00" x="782.40" y="136.47"/>
        <vehicle id="2_1" eclass="HBEFA3/PC_G_EU4" CO2="2624.72" CO="164.78" HC="0.81" NOx="1.20" PMx="0.07" fuel="1.13" electricity="0.00" noise="55.94" route="routeright" type="2" waiting="0.00" lane="right_1" pos="161.49" speed="0.00" angle="90.00" x="766.25" y="139.77"/>
        <vehicle id="2_2" eclass="HBEFA3/PC_G_EU4" CO2="2624.72" CO="164.78" HC="0.81" NOx="1.20" PMx="0.07" fuel="1.13" electricity="0.00" noise="55.94" route="routeright" type="2" waiting="0.00" lane="right_0" pos="290.26" speed="0.00" angle="90.00" x="892.45" y="136.47"/>
        <vehicle id="2_3" eclass="HBEFA3/PC_G_EU4" CO2="2624.72" CO="164.78" HC="0.81" NOx="1.20" PMx="0.07" fuel="1.13" electricity="0.00" noise="55.94" route="routeright" type="2" waiting="0.00" lane="right_1" pos="282.18" speed="0.00" angle="90.00" x="884.53" y="139.77"/>
        <vehicle id="2_4" eclass="HBEFA3/PC_G_EU4" CO2="2624.72" CO="164.78" HC="0.81" NOx="1.20" PMx="0.07" fuel="1.13" electricity="0.00" noise="55.94" route="routeleft" type="2" waiting="0.00" lane="left_0" pos="9.73" speed="0.00" angle="90.00" x="109.47" y="136.47"/>
        <vehicle id="3_0" eclass="HBEFA3/PC_G_EU4" CO2="2624.72" CO="164.78" HC="0.81" NOx="1.20" PMx="0.07" fuel="1.13" electricity="0.00" noise="55.94" route="routeleft" type="3" waiting="0.00" lane="left_1" pos="2.06" speed="0.00" angle="90.00" x="102.01" y="139.77"/>
        <vehicle id="3_1" eclass="HBEFA3/PC_G_EU4" CO2="2624.72" CO="164.78" HC="0.81" NOx="1.20" PMx="0.07" fuel="1.13" electricity="0.00" noise="55.94" route="routeleft" type="3" waiting="0.00" lane="left_0" pos="126.84" speed="0.00" angle="90.00" x="223.47" y="136.47"/>
        <vehicle id="3_2" eclass="HBEFA3/PC_G_EU4" CO2="2624.72" CO="164.78" HC="0.81" NOx="1.20" PMx="0.07" fuel="1.13" electricity="0.00" noise="55.94" route="routeleft" type="3" waiting="0.00" lane="left_1" pos="127.27" speed="0.00" angle="90.00" x="223.88" y="139.77"/>
        <vehicle id="3_3" eclass="HBEFA3/PC_G_EU4" CO2="2624.72" CO="164.78" HC="0.81" NOx="1.20" PMx="0.07" fuel="1.13" electricity="0.00" noise="55.94" route="routeleft" type="3" waiting="0.00" lane="left_0" pos="243.39" speed="0.00" angle="90.00" x="336.92" y="136.47"/>
        <vehicle id="3_4" eclass="HBEFA3/PC_G_EU4" CO2="2624.72" CO="164.78" HC="0.81" NOx="1.20" PMx="0.07" fuel="1.13" electricity="0.00" noise="55.94" route="routeleft" type="3" waiting="0.00" lane="left_1" pos="247.15" speed="0.00" angle="90.00" x="340.57" y="139.77"/>
        <vehicle id="4_0" eclass="HBEFA3/PC_G_EU4" CO2="2624.72" CO="164.78" HC="0.81" NOx="1.20" PMx="0.07" fuel="1.13" electricity="0.00" noise="55.94" route="routeinflow_merge" type="4" waiting="0.00" lane="inflow_merge_0" pos="67.85" speed="0.00" angle="45.00" x="307.72" y="46.80"/>
        <vehicle id="4_1" eclass="HBEFA3/PC_G_EU4" CO2="2624.72" CO="164.78" HC="0.81" NOx="1.20" PMx="0.07" fuel="1.13" electricity="0.00" noise="55.94" route="routecenter" type="4" waiting="0.00" lane="center_0" pos="72.87" speed="0.00" angle="90.00" x="472.75" y="136.47"/>
        <vehicle id="4_2" eclass="HBEFA3/PC_G_EU4" CO2="2624.72" CO="164.78" HC="0.81" NOx="1.20" PMx="0.07" fuel="1.13" electricity="0.00" noise="55.94" route="routecenter" type="4" waiting="0.00" lane="center_1" pos="77.91" speed="0.00" angle="90.00" x="477.81" y="139.77"/>
        <vehicle id="4_3" eclass="HBEFA3/PC_G_EU4" CO2="2624.72" CO="164.78" HC="0.81" NOx="1.20" PMx="0.07" fuel="1.13" electricity="0.00" noise="55.94" route="routediverge" type="4" waiting="0.00" lane="diverge_0" pos="9.08" speed="0.00" angle="135.00" x="612.49" y="126.60"/>
        <vehicle id="4_4" eclass="HBEFA3/PC_G_EU4" CO2="2624.72" CO="164.78" HC="0.81" NOx="1.20" PMx="0.07" fuel="1.13" electricity="0.00" noise="55.94" route="routediverge" type="4" waiting="0.00" lane="diverge_0" pos="124.13" speed="0.00" angle="135.00" x="689.48" y="49.61"/>
    </timestep>
    <timestep time="0.40">
        <vehicle id="1_0" eclass="HBEFA3/PC_G_EU4" CO2="2650.80" CO="161.81" HC="0.80" NOx="1.21" PMx="0.07" fuel="1.14" electricity="0.00" noise="60.39" route="routeinflow_highway" type="1" waiting="0.00" lane="inflow_highway_0" pos="4.26" speed="0.20" angle="90.00" x="4.26" y="136.47"/>
        <vehicle id="1_1" eclass="HBEFA3/PC_G_EU4" CO2="2650.79" CO="161.82" HC="0.80" NOx="1.21" PMx="0.07" fuel="1.14" electricity="0.00" noise="60.39" route="routeinflow_highway" type="1" waiting="0.00" lane="inflow_highway_1" pos="4.21" speed="0.20" angle="90.00" x="4.21" y="139.77"/>
        <vehicle id="1_2" eclass="HBEFA3/PC_G_EU4" CO2="2650.81" CO="161.81" HC="0.80" NOx="1.21" PMx="0.07" fuel="1.14" electricity="0.00" noise="60.39" route="routemerge" type="1" waiting="0.00" lane="merge_0" pos="21.51" speed="0.20" angle="45.00" x="344.04" y="83.12"/>
        <vehicle id="1_3" eclass="HBEFA3/PC_G_EU4" CO2="2650.81" CO="161.81" HC="0.80" NOx="1.21" PMx="0.07" fuel="1.14" electricity="0.00" noise="60.39" route="routeright" type="1" waiting="0.00" lane="right_0" pos="42.25" speed="0.20" angle="90.00" x="649.39" y="136.47"/>
        <vehicle id="1_4" eclass="HBEFA3/PC_G_EU4" CO2="2650.80" CO="161.81" HC="0.80" NOx="1.21" PMx="0.07" fuel="1.14" electricity="0.00" noise="60.39" route="routeright" type="1" waiting="0.00" lane="right_1" pos="46.40" speed="0.20" angle="90.00" x="653.45" y="139.77"/>
        <vehicle id="2_0" eclass="HBEFA3/PC_G_EU4" CO2="2650.80" CO="161.81" HC="0.80" NOx="1.21" PMx="0.07" fuel="1.14" electricity="0.00" noise="60.39" route="routeright" type="2" waiting="0.00" lane="right_0" pos="178.01" speed="0.20" angle="90.00" x="782.44" y="136.47"/>
        <vehicle id="2_1" eclass="HBEFA3/PC_G_EU4" CO2="2650.80" CO="161.81" HC="0.80" NOx="1.21" PMx="0.07" fuel="1.14" electricity="0.00" noise="60.39" route="routeright" type="2" waiting="0.00" lane="right_1" pos="161.53" speed="0.20" angle="90.00" x="766.29" y="139.77"/>
        <vehicle id="2_2" eclass="HBEFA3/PC_G_EU4" CO2="2650.83" CO="161.81" HC="0.80" NOx="1.21" PMx="0.07" fuel="1.14" electricity="0.00" noise="60.39" route="routeright" type="2" waiting="0.00" lane="right_0" pos="290.30" speed="0.20" angle="90.00" x="892.49" y="136.47"/>
        <vehicle id="2_3" eclass="HBEFA3/PC_G_EU4" CO2="2650.83" CO="161.81" HC="0.80" NOx="1.21" PMx="0.07" fuel="1.14" electricity="0.00" noise="60.39" route="routeright" type="2" waiting="0.00" lane="right_1" pos="282.22" speed="0.20" angle="90.00" x="884.57" y="139.77"/>
        <vehicle id="2_4" eclass="HBEFA3/PC_G_EU4" CO2="2650.80" CO="161.81" HC="0.80" NOx="1.21" PMx="0.07" fuel="1.14" electricity="0.00" noise="60.39" route="routeleft" type="2" waiting="0.00" lane="left_0" pos="9.77" speed="0.20" angle="90.00" x="109.51" y="136.47"/>
        <vehicle id="3_0" eclass="HBEFA3/PC_G_EU4" CO2="2650.81" CO="161.81" HC="0.80" NOx="1.21" PMx="0.07" fuel="1.14" electricity="0.00" noise="60.39" route="routeleft" type="3" waiting="0.00" lane="left_1" pos="2.10" speed="0.20" angle="90.00" x="102.05" y="139.77"/>
        <vehicle id="3_1" eclass="HBEFA3/PC_G_EU4" CO2="2650.80" CO="161.81" HC="0.80" NOx="1.21" PMx="0.07" fuel="1.14" electricity="0.00" noise="60.39" route="routeleft" type="3" waiting="0.00" lane="left_0" pos="126.88" speed="0.20" angle="90.00" x="223.51" y="136.47"/>
        <vehicle id="3_2" eclass="HBEFA3/PC_G_EU4" CO2="2650.80" CO="161.81" HC="0.80" NOx="1.21" PMx="0.07" fuel="1.14" electricity="0.00" noise="60.39" route="routeleft" type="3" waiting="0.00" lane="left_1" pos="127.31" speed="0.20" angle="90.00" x="223.92" y="139.77"/>
        <vehicle id="3_3" eclass="HBEFA3/PC_G_EU4" CO2="2650.81" CO="161.81" HC="0.80" NOx="1.21" PMx="0.07" fuel="1.14" electricity="0.00" noise="60.39" route="routeleft" type="3" waiting="0.00" lane="left_0" pos="243.43" speed="0.20" angle="90.00" x="336.95" y="136.47"/>
        <vehicle id="3_4" eclass="HBEFA3/PC_G_EU4" CO2="2650.81" CO="161.81" HC="0.80" NOx="1.21" PMx="0.07" fuel="1.14" electricity="0.00" noise="60.39" route="routeleft" type="3" waiting="0.00" lane="left_1" pos="247.19" speed="0.20" angle="90.00" x="340.61" y="139.77"/>
        <vehicle id="4_0" eclass="HBEFA3/PC_G_EU4" CO2="2650.70" CO="161.82" HC="0.80" NOx="1.21" PMx="0.07" fuel="1.14" electricity="0.00" noise="60.38" route="!4_0!var#1" type="4" waiting="0.00" lane="inflow_merge_0" pos="67.89" speed="0.20" angle="45.00" x="307.75" y="46.83"/>
        <vehicle id="4_1" eclass="HBEFA3/PC_G_EU4" CO2="2650.82" CO="161.81" HC="0.80" NOx="1.21" PMx="0.07" fuel="1.14" electricity="0.00" noise="60.39" route="routecenter" type="4" waiting="0.00" lane="center_0" pos="72.91" speed="0.20" angle="90.00" x="472.79" y="136.47"/>
        <vehicle id="4_2" eclass="HBEFA3/PC_G_EU4" CO2="2650.82" CO="161.81" HC="0.80" NOx="1.21" PMx="0.07" fuel="1.14" electricity="0.00" noise="60.39" route="routecenter" type="4" waiting="0.00" lane="center_1" pos="77.95" speed="0.20" angle="90.00" x="477.85" y="139.77"/>
        <vehicle id="4_3" eclass="HBEFA3/PC_G_EU4" CO2="2650.80" CO="161.81" HC="0.80" NOx="1.21" PMx="0.07" fuel="1.14" electricity="0.00" noise="60.39" route="routediverge" type="4" waiting="0.00" lane="diverge_0" pos="9.12" speed="0.20" angle="135.00" x="612.51" y="126.57"/>
        <vehicle id="4_4" eclass="HBEFA3/PC_G_EU4" CO2="2650.83" CO="161.81" HC="0.80" NOx="1.21" PMx="0.07" fuel="1.14" electricity="0.00" noise="60.39" route="routediverge" type="4" waiting="0.00" lane="diverge_0" pos="124.17" speed="0.20" angle="135.00" x="689.50" y="49.58"/>
    </timestep>
    <timestep time="0.60">
        <vehicle id="1_0" eclass="HBEFA3/PC_G_EU4" CO2="2677.48" CO="158.90" HC="0.79" NOx="1.22" PMx="0.07" fuel="1.15" electricity="0.00" noise="60.47" route="routeinflow_highway" type="1" waiting="0.00" lane="inflow_highway_0" pos="4.34" speed="0.40" angle="90.00" x="4.34" y="136.47"/>
        <vehicle id="1_1" eclass="HBEFA3/PC_G_EU4" CO2="2677.47" CO="158.90" HC="0.79" NOx="1.22" PMx="0.07" fuel="1.15" electricity="0.00" noise="60.46" route="routeinflow_highway" type="1" waiting="0.00" lane="inflow_highway_1" pos="4.29" speed="0.40" angle="90.00" x="4.29" y="139.77"/>
        <vehicle id="1_2" eclass="HBEFA3/PC_G_EU4" CO2="2677.52" CO="158.90" HC="0.79" NOx="1.22" PMx="0.07" fuel="1.15" electricity="0.00" noise="60.47" route="routemerge" type="1" waiting="0.00" lane="merge_0" pos="21.59" speed="0.40" angle="45.00" x="344.09" y="83.17"/>
        <vehicle id="1_3" eclass="HBEFA3/PC_G_EU4" CO2="2677.51" CO="158.90" HC="0.79" NOx="1.22" PMx="0.07" fuel="1.15" electricity="0.00" noise="60.47" route="routeright" type="1" waiting="0.00" lane="right_0" pos="42.33" speed="0.40" angle="90.00" x="649.47" y="136.47"/>
        <vehicle id="1_4" eclass="HBEFA3/PC_G_EU4" CO2="2677.49" CO="158.90" HC="0.79" NOx="1.22" PMx="0.07" fuel="1.15" electricity="0.00" noise="60.47" route="routeright" type="1" waiting="0.00" lane="right_1" pos="46.48" speed="0.40" angle="90.00" x="653.53" y="139.77"/>
        <vehicle id="2_0" eclass="HBEFA3/PC_G_EU4" CO2="2677.49" CO="158.90" HC="0.79" NOx="1.22" PMx="0.07" fuel="1.15" electricity="0.00" noise="60.47" route="routeright" type="2" waiting="0.00" lane="right_0" pos="178.09" speed="0.40" angle="90.00" x="782.52" y="136.47"/>
        <vehicle id="2_1" eclass="HBEFA3/PC_G_EU4" CO2="2677.50" CO="158.90" HC="0.79" NOx="1.22" PMx="0.07" fuel="1.15" electricity="0.00" noise="60.47" route="routeright" type="2" waiting="0.00" lane="right_1" pos="161.61" speed="0.40" angle="90.00" x="766.36" y="139.77"/>
        <vehicle id="2_2" eclass="HBEFA3/PC_G_EU4" CO2="2677.56" CO="158.90" HC="0.79" NOx="1.22" PMx="0.07" fuel="1.15" electricity="0.00" noise="60.47" route="routeright" type="2" waiting="0.00" lane="right_0" pos="290.38" speed="0.40" angle="90.00" x="892.57" y="136.47"/>
        <vehicle id="2_3" eclass="HBEFA3/PC_G_EU4" CO2="2677.56" CO="158.90" HC="0.79" NOx="1.22" PMx="0.07" fuel="1.15" electricity="0.00" noise="60.47" route="routeright" type="2" waiting="0.00" lane="right_1" pos="282.30" speed="0.40" angle="90.00" x="884.65" y="139.77"/>
        <vehicle id="2_4" eclass="HBEFA3/PC_G_EU4" CO2="2677.50" CO="158.90" HC="0.79" NOx="1.22" PMx="0.07" fuel="1.15" electricity="0.00" noise="60.47" route="routeleft" type="2" waiting="0.00" lane="left_0" pos="9.85" speed="0.40" angle="90.00" x="109.58" y="136.47"/>
        <vehicle id="3_0" eclass="HBEFA3/PC_G_EU4" CO2="2677.50" CO="158.90" HC="0.79" NOx="1.22" PMx="0.07" fuel="1.15" electricity="0.00" noise="60.47" route="routeleft" type="3" waiting="0.00" lane="left_1" pos="2.18" speed="0.40" angle="90.00" x="102.13" y="139.77"/>
        <vehicle id="3_1" eclass="HBEFA3/PC_G_EU4" CO2="2677.50" CO="158.90" HC="0.79" NOx="1.22" PMx="0.07" fuel="1.15" electricity="0.00" noise="60.47" route="routeleft" type="3" waiting="0.00" lane="left_0" pos="126.96" speed="0.40" angle="90.00" x="223.59" y="136.47"/>
        <vehicle id="3_2" eclass="HBEFA3/PC_G_EU4" CO2="2677.50" CO="158.90" HC="0.79" NOx="1.22" PMx="0.07" fuel="1.15" electricity="0.00" noise="60.47" route="routeleft" type="3" waiting="0.00" lane="left_1" pos="127.39" speed="0.40" angle="90.00" x="224.00" y="139.77"/>
        <vehicle id="3_3" eclass="HBEFA3/PC_G_EU4" CO2="2677.51" CO="158.90" HC="0.79" NOx="1.22" PMx="0.07" fuel="1.15" electricity="0.00" noise="60.47" route="routeleft" type="3" waiting="0.00" lane="left_0" pos="243.51" speed="0.40" angle="90.00" x="337.03" y="136.47"/>
        <vehicle id="3_4" eclass="HBEFA3/PC_G_EU4" CO2="2677.51" CO="158.90" HC="0.79" NOx="1.22" PMx="0.07" fuel="1.15" electricity="0.00" noise="60.47" route="routeleft" type="3" waiting="0.00" lane="left_1" pos="247.26" speed="0.40" angle="90.00" x="340.69" y="139.77"/>
        <vehicle id="4_0" eclass="HBEFA3/PC_G_EU4" CO2="2677.25" CO="158.90" HC="0.79" NOx="1.22" PMx="0.07" fuel="1.15" electricity="0.00" noise="60.46" route="!4_0!var#1" type="4" waiting="0.00" lane="inflow_merge_0" pos="67.97" speed="0.40" angle="45.00" x="307.81" y="46.89"/>
        <vehicle id="4_1" eclass="HBEFA3/PC_G_EU4" CO2="2677.53" CO="158.90" HC="0.79" NOx="1.22" PMx="0.07" fuel="1.15" electricity="0.00" noise="60.47" route="routecenter" type="4" waiting="0.00" lane="center_0" pos="72.99" speed="0.40" angle="90.00" x="472.87" y="136.47"/>
        <vehicle id="4_2" eclass="HBEFA3/PC_G_EU4" CO2="2677.53" CO="158.90" HC="0.79" NOx="1.22" PMx="0.07" fuel="1.15" electricity="0.00" noise="60.47" route="routecenter" type="4" waiting="0.00" lane="center_1" pos="78.03" speed="0.40" angle="90.00" x="477.93" y="139.77"/>
        <vehicle id="4_3" eclass="HBEFA3/PC_G_EU4" CO2="2677.49" CO="158.90" HC="0.79" NOx="1.22" PMx="0.07" fuel="1.15" electricity="0.00" noise="60.47" route="routediverge" type="4" waiting="0.00" lane="diverge_0" pos="9.20" speed="0.40" angle="135.00" x="612.57" y="126.52"/>
        <vehicle id="4_4" eclass="HBEFA3/PC_G_EU4" CO2="2677.56" CO="158.90" HC="0.79" NOx="1.22" PMx="0.07" fuel="1.15" electricity="0.00" noise="60.47" route="routediverge" type="4" waiting="0.00" lane="diverge_0" pos="124.25" speed="0.40" angle="135.00" x="689.56" y="49.53"/>
    </timestep>
    <timestep time="0.80">
        <vehicle id="1_0" eclass="HBEFA3/PC_G_EU4" CO2="2704.78" CO="156.03" HC="0.77" NOx="1.23" PMx="0.06" fuel="1.16" electricity="0.00" noise="60.54" route="routeinflow_highway" type="1" waiting="0.00" lane="inflow_highway_0" pos="4.46" speed="0.60" angle="90.00" x="4.46" y="136.47"/>
        <vehicle id="1_1" eclass="HBEFA3/PC_G_EU4" CO2="2704.76" CO="156.03" HC="0.77" NOx="1.23" PMx="0.06" fuel="1.16" electricity="0.00" noise="60.54" route="routeinflow_highway" type="1" waiting="0.00" lane="inflow_highway_1" pos="4.41" speed="0.60" angle="90.00" x="4.41" y="139.77"/>
        <vehicle id="1_2" eclass="HBEFA3/PC_G_EU4" CO2="2704.85" CO="156.03" HC="0.77" NOx="1.23" PMx="0.06" fuel="1.16" electricity="0.00" noise="60.54" route="routemerge" type="1" waiting="0.00" lane="merge_0" pos="21.71" speed="0.60" angle="45.00" x="344.17" y="83.25"/>
        <vehicle id="1_3" eclass="HBEFA3/PC_G_EU4" CO2="2704.83" CO="156.03" HC="0.77" NOx="1.23" PMx="0.06" fuel="1.16" electricity="0.00" noise="60.54" route="routeright" type="1" waiting="0.00" lane="right_0" pos="42.45" speed="0.60" angle="90.00" x="649.58" y="136.47"/>
        <vehicle id="1_4" eclass="HBEFA3/PC_G_EU4" CO2="2704.80" CO="156.03" HC="0.77" NOx="1.23" PMx="0.06" fuel="1.16" electricity="0.00" noise="60.54" route="routeright" type="1" waiting="0.00" lane="right_1" pos="46.60" speed="0.60" angle="90.00" x="653.65" y="139.77"/>
        <vehicle id="2_0" eclass="HBEFA3/PC_G_EU4" CO2="2704.79" CO="156.03" HC="0.77" NOx="1.23" PMx="0.06" fuel="1.16" electricity="0.00" noise="60.54" route="routeright" type="2" waiting="0.00" lane="right_0" pos="178.21" speed="0.60" angle="90.00" x="782.63" y="136.47"/>
        <vehicle id="2_1" eclass="HBEFA3/PC_G_EU4" CO2="2704.81" CO="156.03" HC="0.77" NOx="1.23" PMx="0.06" fuel="1.16" electricity="0.00" noise="60.54" route="routeright" type="2" waiting="0.00" lane="right_1" pos="161.73" speed="0.60" angle="90.00" x="766.48" y="139.77"/>
        <vehicle id="2_2" eclass="HBEFA3/PC_G_EU4" CO2="2704.91" CO="156.02" HC="0.77" NOx="1.23" PMx="0.06" fuel="1.16" electricity="0.00" noise="60.54" route="routeright" type="2" waiting="0.00" lane="right_0" pos="290.50" speed="0.60" angle="90.00" x="892.69" y="136.47"/>
        <vehicle id="2_3" eclass="HBEFA3/PC_G_EU4" CO2="2704.91" CO="156.02" HC="0.77" NOx="1.23" PMx="0.06" fuel="1.16" electricity="0.00" noise="60.54" route="routeright" type="2" waiting="0.00" lane="right_1" pos="282.42" speed="0.60" angle="90.00" x="884.76" y="139.77"/>
        <vehicle id="2_4" eclass="HBEFA3/PC_G_EU4" CO2="2704.80" CO="156.03" HC="0.77" NOx="1.23" PMx="0.06" fuel="1.16" electricity="0.00" noise="60.54" route="routeleft" type="2" waiting="0.00" lane="left_0" pos="9.97" speed="0.60" angle="90.00" x="109.70" y="136.47"/>
        <vehicle id="3_0" eclass="HBEFA3/PC_G_EU4" CO2="2704.82" CO="156.03" HC="0.77" NOx="1.23" PMx="0.06" fuel="1.16" electricity="0.00" noise="60.54" route="routeleft" type="3" waiting="0.00" lane="left_1" pos="2.30" speed="0.60" angle="90.00" x="102.24" y="139.77"/>
        <vehicle id="3_1" eclass="HBEFA3/PC_G_EU4" CO2="2704.80" CO="156.03" HC="0.77" NOx="1.23" PMx="0.06" fuel="1.16" electricity="0.00" noise="60.54" route="routeleft" type="3" waiting="0.00" lane="left_0" pos="127.08" speed="0.60" angle="90.00" x="223.70" y="136.47"/>
        <vehicle id="3_2" eclass="HBEFA3/PC_G_EU4" CO2="2704.81" CO="156.03" HC="0.77" NOx="1.23" PMx="0.06" fuel="1.16" electricity="0.00" noise="60.54" route="routeleft" type="3" waiting="0.00" lane="left_1" pos="127.51" speed="0.60" angle="90.00" x="224.12" y="139.77"/>
        <vehicle id="3_3" eclass="HBEFA3/PC_G_EU4" CO2="2704.83" CO="156.03" HC="0.77" NOx="1.23" PMx="0.06" fuel="1.16" electricity="0.00" noise="60.54" route="routeleft" type="3" waiting="0.00" lane="left_0" pos="243.63" speed="0.60" angle="90.00" x="337.15" y="136.47"/>
        <vehicle id="3_4" eclass="HBEFA3/PC_G_EU4" CO2="2704.83" CO="156.03" HC="0.77" NOx="1.23" PMx="0.06" fuel="1.16" electricity="0.00" noise="60.54" route="routeleft" type="3" waiting="0.00" lane="left_1" pos="247.38" speed="0.60" angle="90.00" x="340.80" y="139.77"/>
        <vehicle id="4_0" eclass="HBEFA3/PC_G_EU4" CO2="2704.36" CO="156.03" HC="0.77" NOx="1.23" PMx="0.06" fuel="1.16" electricity="0.00" noise="60.53" route="!4_0!var#1" type="4" waiting="0.00" lane="inflow_merge_0" pos="68.08" speed="0.60" angle="45.00" x="307.89" y="46.97"/>
        <vehicle id="4_1" eclass="HBEFA3/PC_G_EU4" CO2="2704.86" CO="156.03" HC="0.77" NOx="1.23" PMx="0.06" fuel="1.16" electricity="0.00" noise="60.54" route="routecenter" type="4" waiting="0.00" lane="center_0" pos="73.11" speed="0.60" angle="90.00" x="472.99" y="136.47"/>
        <vehicle id="4_2" eclass="HBEFA3/PC_G_EU4" CO2="2704.86" CO="156.03" HC="0.77" NOx="1.23" PMx="0.06" fuel="1.16" electricity="0.00" noise="60.54" route="routecenter" type="4" waiting="0.00" lane="center_1" pos="78.15" speed="0.60" angle="90.00" x="478.05" y="139.77"/>
        <vehicle id="4_3" eclass="HBEFA3/PC_G_EU4" CO2="2704.80" CO="156.03" HC="0.77" NOx="1.23" PMx="0.06" fuel="1.16" electricity="0.00" noise="60.54" route="routediverge" type="4" waiting="0.00" lane="diverge_0" pos="9.32" speed="0.60" angle="135.00" x="612.65" y="126.44"/>
        <vehicle id="4_4" eclass="HBEFA3/PC_G_EU4" CO2="2704.91" CO="156.02" HC="0.77" NOx="1.23" PMx="0.06" fuel="1.16" electricity="0.00" noise="60.54" route="routediverge" type="4" waiting="0.00" lane="diverge_0" pos="124.37" speed="0.60" angle="135.00" x="689.64" y="49.45"/>
    </timestep>
    <timestep time="1.00">
        <vehicle id="1_0" eclass="HBEFA3/PC_G_EU4" CO2="2732.68" CO="153.20" HC="0.76" NOx="1.23" PMx="0.06" fuel="1.17" electricity="0.00" noise="60.62" route="routeinflow_highway" type="1" waiting="0.00" lane="inflow_highway_0" pos="4.62" speed="0.80" angle="90.00" x="4.62" y="136.47"/>