<?xml version="1.0" encoding="UTF-8"?>

<!-- generated on Mon Nov 19 20:34:36 2018 by SUMO gui Version b'v0_31_0-812-g1d4338ab80'
<?xml version="1.0" encoding="UTF-8"?>

<configuration xmlns:xsi="http://www.w3.org/2001/XMLSchema-instance" xsi:noNamespaceSchemaLocation="http://sumo.dlr.de/xsd/sumoConfiguration.xsd">

    <input>
        <net-file value="/Users/barryfan/flow/flow/scenarios/debug/cfg/merge-baseline_20181119-2034351542688475.697514.net.xml"/>
        <route-files value="/Users/barryfan/flow/flow/scenarios/debug/cfg/merge-baseline_20181119-2034351542688475.697514.rou.xml"/>
        <additional-files value="/Users/barryfan/flow/flow/scenarios/debug/cfg/merge-baseline_20181119-2034351542688475.697514.add.xml"/>
    </input>

    <output>
        <emission-output value="./data/merge-baseline_20181119-2034351542688475.697514-emission.xml"/>
    </output>

    <time>
        <begin value="0"/>
        <step-length value="0.2"/>
    </time>

    <processing>
        <time-to-teleport value="-1"/>
    </processing>

    <report>
        <no-step-log value="true"/>
    </report>

    <traci_server>
        <remote-port value="63273"/>
    </traci_server>

    <gui_only>
        <gui-settings-file value="/Users/barryfan/flow/flow/scenarios/debug/cfg/merge-baseline_20181119-2034351542688475.697514.gui.cfg"/>
        <tracker-interval value="0.2"/>
    </gui_only>

</configuration>
-->

<emission-export xmlns:xsi="http://www.w3.org/2001/XMLSchema-instance" xsi:noNamespaceSchemaLocation="http://sumo.dlr.de/xsd/emission_file.xsd">
    <timestep time="0.00">
        <vehicle id="1_0" eclass="HBEFA3/PC_G_EU4" CO2="2624.72" CO="164.78" HC="0.81" NOx="1.20" PMx="0.07" fuel="1.13" electricity="0.00" noise="55.94" route="routeinflow_highway" type="1" waiting="0.00" lane="inflow_highway_0" pos="1.77" speed="0.00" angle="90.00" x="1.77" y="136.47"/>
        <vehicle id="1_1" eclass="HBEFA3/PC_G_EU4" CO2="2624.72" CO="164.78" HC="0.81" NOx="1.20" PMx="0.07" fuel="1.13" electricity="0.00" noise="55.94" route="routeinflow_highway" type="1" waiting="0.00" lane="inflow_highway_1" pos="13.67" speed="0.00" angle="90.00" x="13.67" y="139.77"/>
        <vehicle id="1_2" eclass="HBEFA3/PC_G_EU4" CO2="2624.72" CO="164.78" HC="0.81" NOx="1.20" PMx="0.07" fuel="1.13" electricity="0.00" noise="55.94" route="routeright" type="1" waiting="0.00" lane="right_0" pos="39.82" speed="0.00" angle="90.00" x="647.00" y="136.47"/>
        <vehicle id="1_3" eclass="HBEFA3/PC_G_EU4" CO2="2624.72" CO="164.78" HC="0.81" NOx="1.20" PMx="0.07" fuel="1.13" electricity="0.00" noise="55.94" route="routeright" type="1" waiting="0.00" lane="right_1" pos="23.25" speed="0.00" angle="90.00" x="630.76" y="139.77"/>
        <vehicle id="1_4" eclass="HBEFA3/PC_G_EU4" CO2="2624.72" CO="164.78" HC="0.81" NOx="1.20" PMx="0.07" fuel="1.13" electricity="0.00" noise="55.94" route="routeright" type="1" waiting="0.00" lane="right_0" pos="136.40" speed="0.00" angle="90.00" x="741.66" y="136.47"/>
        <vehicle id="2_0" eclass="HBEFA3/PC_G_EU4" CO2="2624.72" CO="164.78" HC="0.81" NOx="1.20" PMx="0.07" fuel="1.13" electricity="0.00" noise="55.94" route="routeright" type="2" waiting="0.00" lane="right_1" pos="148.70" speed="0.00" angle="90.00" x="753.72" y="139.77"/>
        <vehicle id="2_1" eclass="HBEFA3/PC_G_EU4" CO2="2624.72" CO="164.78" HC="0.81" NOx="1.20" PMx="0.07" fuel="1.13" electricity="0.00" noise="55.94" route="routeright" type="2" waiting="0.00" lane="right_0" pos="257.16" speed="0.00" angle="90.00" x="860.01" y="136.47"/>
        <vehicle id="2_2" eclass="HBEFA3/PC_G_EU4" CO2="2624.72" CO="164.78" HC="0.81" NOx="1.20" PMx="0.07" fuel="1.13" electricity="0.00" noise="55.94" route="routeright" type="2" waiting="0.00" lane="right_1" pos="274.17" speed="0.00" angle="90.00" x="876.68" y="139.77"/>
        <vehicle id="2_3" eclass="HBEFA3/PC_G_EU4" CO2="2624.72" CO="164.78" HC="0.81" NOx="1.20" PMx="0.07" fuel="1.13" electricity="0.00" noise="55.94" route="routeright" type="2" waiting="0.00" lane="right_0" pos="385.08" speed="0.00" angle="90.00" x="985.38" y="136.47"/>
        <vehicle id="2_4" eclass="HBEFA3/PC_G_EU4" CO2="2624.72" CO="164.78" HC="0.81" NOx="1.20" PMx="0.07" fuel="1.13" electricity="0.00" noise="55.94" route="routeright" type="2" waiting="0.00" lane="right_1" pos="383.09" speed="0.00" angle="90.00" x="983.43" y="139.77"/>
        <vehicle id="3_0" eclass="HBEFA3/PC_G_EU4" CO2="2624.72" CO="164.78" HC="0.81" NOx="1.20" PMx="0.07" fuel="1.13" electricity="0.00" noise="55.94" route="routecenter" type="3" waiting="0.00" lane="center_0" pos="101.39" speed="0.00" angle="90.00" x="501.40" y="136.47"/>
        <vehicle id="3_1" eclass="HBEFA3/PC_G_EU4" CO2="2624.72" CO="164.78" HC="0.81" NOx="1.20" PMx="0.07" fuel="1.13" electricity="0.00" noise="55.94" route="routecenter" type="3" waiting="0.00" lane="center_1" pos="103.56" speed="0.00" angle="90.00" x="503.58" y="139.77"/>
        <vehicle id="3_2" eclass="HBEFA3/PC_G_EU4" CO2="2624.72" CO="164.78" HC="0.81" NOx="1.20" PMx="0.07" fuel="1.13" electricity="0.00" noise="55.94" route="routemerge" type="3" waiting="0.00" lane="merge_0" pos="26.21" speed="0.00" angle="45.00" x="347.01" y="86.09"/>
        <vehicle id="3_3" eclass="HBEFA3/PC_G_EU4" CO2="2624.72" CO="164.78" HC="0.81" NOx="1.20" PMx="0.07" fuel="1.13" electricity="0.00" noise="55.94" route="routediverge" type="3" waiting="0.00" lane="diverge_0" pos="36.78" speed="0.00" angle="135.00" x="631.02" y="108.07"/>
        <vehicle id="3_4" eclass="HBEFA3/PC_G_EU4" CO2="2624.72" CO="164.78" HC="0.81" NOx="1.20" PMx="0.07" fuel="1.13" electricity="0.00" noise="55.94" route="routediverge" type="3" waiting="0.00" lane="diverge_0" pos="149.46" speed="0.00" angle="135.00" x="706.43" y="32.65"/>
        <vehicle id="4_0" eclass="HBEFA3/PC_G_EU4" CO2="2624.72" CO="164.78" HC="0.81" NOx="1.20" PMx="0.07" fuel="1.13" electricity="0.00" noise="55.94" route="routeleft" type="4" waiting="0.00" lane="left_0" pos="86.85" speed="0.00" angle="90.00" x="184.54" y="136.47"/>
        <vehicle id="4_1" eclass="HBEFA3/PC_G_EU4" CO2="2624.72" CO="164.78" HC="0.81" NOx="1.20" PMx="0.07" fuel="1.13" electricity="0.00" noise="55.94" route="routeleft" type="4" waiting="0.00" lane="left_1" pos="80.27" speed="0.00" angle="90.00" x="178.14" y="139.77"/>
        <vehicle id="4_2" eclass="HBEFA3/PC_G_EU4" CO2="2624.72" CO="164.78" HC="0.81" NOx="1.20" PMx="0.07" fuel="1.13" electricity="0.00" noise="55.94" route="routeleft" type="4" waiting="0.00" lane="left_0" pos="197.07" speed="0.00" angle="90.00" x="291.83" y="136.47"/>
        <vehicle id="4_3" eclass="HBEFA3/PC_G_EU4" CO2="2624.72" CO="164.78" HC="0.81" NOx="1.20" PMx="0.07" fuel="1.13" electricity="0.00" noise="55.94" route="routeleft" type="4" waiting="0.00" lane="left_1" pos="202.61" speed="0.00" angle="90.00" x="297.22" y="139.77"/>
        <vehicle id="4_4" eclass="HBEFA3/PC_G_EU4" CO2="2624.72" CO="164.78" HC="0.81" NOx="1.20" PMx="0.07" fuel="1.13" electricity="0.00" noise="55.94" route="routeinflow_merge" type="4" waiting="0.00" lane="inflow_merge_0" pos="18.93" speed="0.00" angle="45.00" x="273.14" y="12.22"/>
    </timestep>
    <timestep time="0.20">
        <vehicle id="1_0" eclass="HBEFA3/PC_G_EU4" CO2="2624.72" CO="164.78" HC="0.81" NOx="1.20" PMx="0.07" fuel="1.13" electricity="0.00" noise="55.94" route="routeinflow_highway" type="1" waiting="0.00" lane="inflow_highway_0" pos="1.77" speed="0.00" angle="90.00" x="1.77" y="136.47"/>
        <vehicle id="1_1" eclass="HBEFA3/PC_G_EU4" CO2="2624.72" CO="164.78" HC="0.81" NOx="1.20" PMx="0.07" fuel="1.13" electricity="0.00" noise="55.94" route="routeinflow_highway" type="1" waiting="0.00" lane="inflow_highway_1" pos="13.67" speed="0.00" angle="90.00" x="13.67" y="139.77"/>
        <vehicle id="1_2" eclass="HBEFA3/PC_G_EU4" CO2="2624.72" CO="164.78" HC="0.81" NOx="1.20" PMx="0.07" fuel="1.13" electricity="0.00" noise="55.94" route="routeright" type="1" waiting="0.00" lane="right_0" pos="39.82" speed="0.00" angle="90.00" x="647.00" y="136.47"/>
        <vehicle id="1_3" eclass="HBEFA3/PC_G_EU4" CO2="2624.72" CO="164.78" HC="0.81" NOx="1.20" PMx="0.07" fuel="1.13" electricity="0.00" noise="55.94" route="routeright" type="1" waiting="0.00" lane="right_1" pos="23.25" speed="0.00" angle="90.00" x="630.76" y="139.77"/>
        <vehicle id="1_4" eclass="HBEFA3/PC_G_EU4" CO2="2624.72" CO="164.78" HC="0.81" NOx="1.20" PMx="0.07" fuel="1.13" electricity="0.00" noise="55.94" route="routeright" type="1" waiting="0.00" lane="right_0" pos="136.40" speed="0.00" angle="90.00" x="741.66" y="136.47"/>
        <vehicle id="2_0" eclass="HBEFA3/PC_G_EU4" CO2="2624.72" CO="164.78" HC="0.81" NOx="1.20" PMx="0.07" fuel="1.13" electricity="0.00" noise="55.94" route="routeright" type="2" waiting="0.00" lane="right_1" pos="148.70" speed="0.00" angle="90.00" x="753.72" y="139.77"/>
        <vehicle id="2_1" eclass="HBEFA3/PC_G_EU4" CO2="2624.72" CO="164.78" HC="0.81" NOx="1.20" PMx="0.07" fuel="1.13" electricity="0.00" noise="55.94" route="routeright" type="2" waiting="0.00" lane="right_0" pos="257.16" speed="0.00" angle="90.00" x="860.01" y="136.47"/>
        <vehicle id="2_2" eclass="HBEFA3/PC_G_EU4" CO2="2624.72" CO="164.78" HC="0.81" NOx="1.20" PMx="0.07" fuel="1.13" electricity="0.00" noise="55.94" route="routeright" type="2" waiting="0.00" lane="right_1" pos="274.17" speed="0.00" angle="90.00" x="876.68" y="139.77"/>
        <vehicle id="2_3" eclass="HBEFA3/PC_G_EU4" CO2="2624.72" CO="164.78" HC="0.81" NOx="1.20" PMx="0.07" fuel="1.13" electricity="0.00" noise="55.94" route="routeright" type="2" waiting="0.00" lane="right_0" pos="385.08" speed="0.00" angle="90.00" x="985.38" y="136.47"/>
        <vehicle id="2_4" eclass="HBEFA3/PC_G_EU4" CO2="2624.72" CO="164.78" HC="0.81" NOx="1.20" PMx="0.07" fuel="1.13" electricity="0.00" noise="55.94" route="routeright" type="2" waiting="0.00" lane="right_1" pos="383.09" speed="0.00" angle="90.00" x="983.43" y="139.77"/>
        <vehicle id="3_0" eclass="HBEFA3/PC_G_EU4" CO2="2624.72" CO="164.78" HC="0.81" NOx="1.20" PMx="0.07" fuel="1.13" electricity="0.00" noise="55.94" route="routecenter" type="3" waiting="0.00" lane="center_0" pos="101.39" speed="0.00" angle="90.00" x="501.40" y="136.47"/>
        <vehicle id="3_1" eclass="HBEFA3/PC_G_EU4" CO2="2624.72" CO="164.78" HC="0.81" NOx="1.20" PMx="0.07" fuel="1.13" electricity="0.00" noise="55.94" route="routecenter" type="3" waiting="0.00" lane="center_1" pos="103.56" speed="0.00" angle="90.00" x="503.58" y="139.77"/>
        <vehicle id="3_2" eclass="HBEFA3/PC_G_EU4" CO2="2624.72" CO="164.78" HC="0.81" NOx="1.20" PMx="0.07" fuel="1.13" electricity="0.00" noise="55.94" route="routemerge" type="3" waiting="0.00" lane="merge_0" pos="26.21" speed="0.00" angle="45.00" x="347.01" y="86.09"/>
        <vehicle id="3_3" eclass="HBEFA3/PC_G_EU4" CO2="2624.72" CO="164.78" HC="0.81" NOx="1.20" PMx="0.07" fuel="1.13" electricity="0.00" noise="55.94" route="routediverge" type="3" waiting="0.00" lane="diverge_0" pos="36.78" speed="0.00" angle="135.00" x="631.02" y="108.07"/>
        <vehicle id="3_4" eclass="HBEFA3/PC_G_EU4" CO2="2624.72" CO="164.78" HC="0.81" NOx="1.20" PMx="0.07" fuel="1.13" electricity="0.00" noise="55.94" route="routediverge" type="3" waiting="0.00" lane="diverge_0" pos="149.46" speed="0.00" angle="135.00" x="706.43" y="32.65"/>
        <vehicle id="4_0" eclass="HBEFA3/PC_G_EU4" CO2="2624.72" CO="164.78" HC="0.81" NOx="1.20" PMx="0.07" fuel="1.13" electricity="0.00" noise="55.94" route="routeleft" type="4" waiting="0.00" lane="left_0" pos="86.85" speed="0.00" angle="90.00" x="184.54" y="136.47"/>
        <vehicle id="4_1" eclass="HBEFA3/PC_G_EU4" CO2="2624.72" CO="164.78" HC="0.81" NOx="1.20" PMx="0.07" fuel="1.13" electricity="0.00" noise="55.94" route="routeleft" type="4" waiting="0.00" lane="left_1" pos="80.27" speed="0.00" angle="90.00" x="178.14" y="139.77"/>
        <vehicle id="4_2" eclass="HBEFA3/PC_G_EU4" CO2="2624.72" CO="164.78" HC="0.81" NOx="1.20" PMx="0.07" fuel="1.13" electricity="0.00" noise="55.94" route="routeleft" type="4" waiting="0.00" lane="left_0" pos="197.07" speed="0.00" angle="90.00" x="291.83" y="136.47"/>
        <vehicle id="4_3" eclass="HBEFA3/PC_G_EU4" CO2="2624.72" CO="164.78" HC="0.81" NOx="1.20" PMx="0.07" fuel="1.13" electricity="0.00" noise="55.94" route="routeleft" type="4" waiting="0.00" lane="left_1" pos="202.61" speed="0.00" angle="90.00" x="297.22" y="139.77"/>
        <vehicle id="4_4" eclass="HBEFA3/PC_G_EU4" CO2="2624.72" CO="164.78" HC="0.81" NOx="1.20" PMx="0.07" fuel="1.13" electricity="0.00" noise="55.94" route="routeinflow_merge" type="4" waiting="0.00" lane="inflow_merge_0" pos="18.93" speed="0.00" angle="45.00" x="273.14" y="12.22"/>
    </timestep>
    <timestep time="0.40">
        <vehicle id="1_0" eclass="HBEFA3/PC_G_EU4" CO2="2651.22" CO="161.80" HC="0.80" NOx="1.21" PMx="0.07" fuel="1.14" electricity="0.00" noise="60.41" route="!1_0!var#1" type="1" waiting="0.00" lane="inflow_highway_0" pos="1.81" speed="0.20" angle="90.00" x="1.81" y="136.47"/>
        <vehicle id="1_1" eclass="HBEFA3/PC_G_EU4" CO2="2632.65" CO="162.45" HC="0.80" NOx="1.20" PMx="0.07" fuel="1.13" electricity="0.00" noise="59.11" route="!1_1!var#1" type="1" waiting="0.00" lane="inflow_highway_1" pos="13.70" speed="0.14" angle="90.00" x="13.70" y="139.77"/>
        <vehicle id="1_2" eclass="HBEFA3/PC_G_EU4" CO2="2636.75" CO="162.26" HC="0.80" NOx="1.21" PMx="0.07" fuel="1.13" electricity="0.00" noise="59.46" route="routeright" type="1" waiting="0.00" lane="right_0" pos="39.85" speed="0.16" angle="90.00" x="647.03" y="136.47"/>
        <vehicle id="1_3" eclass="HBEFA3/PC_G_EU4" CO2="2637.31" CO="162.23" HC="0.80" NOx="1.21" PMx="0.07" fuel="1.13" electricity="0.00" noise="59.50" route="routeright" type="1" waiting="0.00" lane="right_1" pos="23.28" speed="0.16" angle="90.00" x="630.79" y="139.77"/>
        <vehicle id="1_4" eclass="HBEFA3/PC_G_EU4" CO2="2633.28" CO="162.41" HC="0.80" NOx="1.20" PMx="0.07" fuel="1.13" electricity="0.00" noise="59.17" route="routeright" type="1" waiting="0.00" lane="right_0" pos="136.43" speed="0.14" angle="90.00" x="741.69" y="136.47"/>
        <vehicle id="2_0" eclass="HBEFA3/PC_G_EU4" CO2="2648.99" CO="161.86" HC="0.80" NOx="1.21" PMx="0.07" fuel="1.14" electricity="0.00" noise="60.29" route="routeright" type="2" waiting="0.00" lane="right_1" pos="148.74" speed="0.19" angle="90.00" x="753.75" y="139.77"/>
        <vehicle id="2_1" eclass="HBEFA3/PC_G_EU4" CO2="2651.22" CO="161.80" HC="0.80" NOx="1.21" PMx="0.07" fuel="1.14" electricity="0.00" noise="60.41" route="routeright" type="2" waiting="0.00" lane="right_0" pos="257.20" speed="0.20" angle="90.00" x="860.05" y="136.47"/>
        <vehicle id="2_2" eclass="HBEFA3/PC_G_EU4" CO2="2651.22" CO="161.80" HC="0.80" NOx="1.21" PMx="0.07" fuel="1.14" electricity="0.00" noise="60.41" route="routeright" type="2" waiting="0.00" lane="right_1" pos="274.21" speed="0.20" angle="90.00" x="876.72" y="139.77"/>
        <vehicle id="2_3" eclass="HBEFA3/PC_G_EU4" CO2="2651.12" CO="161.81" HC="0.80" NOx="1.21" PMx="0.07" fuel="1.14" electricity="0.00" noise="60.41" route="routeright" type="2" waiting="0.00" lane="right_0" pos="385.12" speed="0.20" angle="90.00" x="985.42" y="136.47"/>
        <vehicle id="2_4" eclass="HBEFA3/PC_G_EU4" CO2="2640.37" CO="162.12" HC="0.80" NOx="1.21" PMx="0.07" fuel="1.14" electricity="0.00" noise="59.73" route="routeright" type="2" waiting="0.00" lane="right_1" pos="383.12" speed="0.17" angle="90.00" x="983.46" y="139.77"/>
        <vehicle id="3_0" eclass="HBEFA3/PC_G_EU4" CO2="2646.89" CO="161.92" HC="0.80" NOx="1.21" PMx="0.07" fuel="1.14" electricity="0.00" noise="60.16" route="routecenter" type="3" waiting="0.00" lane="center_0" pos="101.43" speed="0.19" angle="90.00" x="501.44" y="136.47"/>
        <vehicle id="3_1" eclass="HBEFA3/PC_G_EU4" CO2="2632.91" CO="162.43" HC="0.80" NOx="1.20" PMx="0.07" fuel="1.13" electricity="0.00" noise="59.13" route="routecenter" type="3" waiting="0.00" lane="center_1" pos="103.59" speed="0.14" angle="90.00" x="503.61" y="139.77"/>
        <vehicle id="3_2" eclass="HBEFA3/PC_G_EU4" CO2="2651.22" CO="161.80" HC="0.80" NOx="1.21" PMx="0.07" fuel="1.14" electricity="0.00" noise="60.41" route="routemerge" type="3" waiting="0.00" lane="merge_0" pos="26.25" speed="0.20" angle="45.00" x="347.03" y="86.11"/>
        <vehicle id="3_3" eclass="HBEFA3/PC_G_EU4" CO2="2651.22" CO="161.80" HC="0.80" NOx="1.21" PMx="0.07" fuel="1.14" electricity="0.00" noise="60.41" route="routediverge" type="3" waiting="0.00" lane="diverge_0" pos="36.82" speed="0.20" angle="135.00" x="631.05" y="108.04"/>
        <vehicle id="3_4" eclass="HBEFA3/PC_G_EU4" CO2="2639.82" CO="162.14" HC="0.80" NOx="1.21" PMx="0.07" fuel="1.13" electricity="0.00" noise="59.69" route="routediverge" type="3" waiting="0.00" lane="diverge_0" pos="149.49" speed="0.17" angle="135.00" x="706.45" y="32.63"/>
        <vehicle id="4_0" eclass="HBEFA3/PC_G_EU4" CO2="2645.43" CO="161.96" HC="0.80" NOx="1.21" PMx="0.07" fuel="1.14" electricity="0.00" noise="60.07" route="routeleft" type="4" waiting="0.00" lane="left_0" pos="86.89" speed="0.18" angle="90.00" x="184.58" y="136.47"/>
        <vehicle id="4_1" eclass="HBEFA3/PC_G_EU4" CO2="2629.83" CO="162.61" HC="0.80" NOx="1.20" PMx="0.07" fuel="1.13" electricity="0.00" noise="58.83" route="routeleft" type="4" waiting="0.00" lane="left_1" pos="80.30" speed="0.13" angle="90.00" x="178.16" y="139.77"/>
        <vehicle id="4_2" eclass="HBEFA3/PC_G_EU4" CO2="2639.83" CO="162.14" HC="0.80" NOx="1.21" PMx="0.07" fuel="1.13" electricity="0.00" noise="59.69" route="routeleft" type="4" waiting="0.00" lane="left_0" pos="197.10" speed="0.17" angle="90.00" x="291.86" y="136.47"/>
        <vehicle id="4_3" eclass="HBEFA3/PC_G_EU4" CO2="2625.31" CO="162.97" HC="0.80" NOx="1.20" PMx="0.07" fuel="1.13" electricity="0.00" noise="58.25" route="routeleft" type="4" waiting="0.00" lane="left_1" pos="202.63" speed="0.10" angle="90.00" x="297.24" y="139.77"/>
        <vehicle id="4_4" eclass="HBEFA3/PC_G_EU4" CO2="2648.55" CO="161.87" HC="0.80" NOx="1.21" PMx="0.07" fuel="1.14" electricity="0.00" noise="60.26" route="!4_4!var#1" type="4" waiting="0.00" lane="inflow_merge_0" pos="18.97" speed="0.19" angle="45.00" x="273.17" y="12.25"/>
    </timestep>
    <timestep time="0.60">
        <vehicle id="1_0" eclass="HBEFA3/PC_G_EU4" CO2="2678.34" CO="158.88" HC="0.79" NOx="1.22" PMx="0.07" fuel="1.15" electricity="0.00" noise="60.49" route="!1_0!var#1" type="1" waiting="0.00" lane="inflow_highway_0" pos="1.89" speed="0.40" angle="90.00" x="1.89" y="136.47"/>
        <vehicle id="1_1" eclass="HBEFA3/PC_G_EU4" CO2="2668.48" CO="159.75" HC="0.79" NOx="1.22" PMx="0.07" fuel="1.15" electricity="0.00" noise="60.39" route="!1_1!var#1" type="1" waiting="0.00" lane="inflow_highway_1" pos="13.77" speed="0.34" angle="90.00" x="13.77" y="139.77"/>
        <vehicle id="1_2" eclass="HBEFA3/PC_G_EU4" CO2="2666.71" CO="159.55" HC="0.79" NOx="1.21" PMx="0.07" fuel="1.15" electricity="0.00" noise="60.25" route="routeright" type="1" waiting="0.00" lane="right_0" pos="39.92" speed="0.35" angle="90.00" x="647.10" y="136.47"/>
        <vehicle id="1_3" eclass="HBEFA3/PC_G_EU4" CO2="2667.51" CO="159.52" HC="0.79" NOx="1.21" PMx="0.07" fuel="1.15" electricity="0.00" noise="60.28" route="routeright" type="1" waiting="0.00" lane="right_1" pos="23.35" speed="0.35" angle="90.00" x="630.86" y="139.77"/>
        <vehicle id="1_4" eclass="HBEFA3/PC_G_EU4" CO2="2670.72" CO="159.69" HC="0.79" NOx="1.22" PMx="0.07" fuel="1.15" electricity="0.00" noise="60.47" route="routeright" type="1" waiting="0.00" lane="right_0" pos="136.50" speed="0.34" angle="90.00" x="741.75" y="136.47"/>
        <vehicle id="2_0" eclass="HBEFA3/PC_G_EU4" CO2="2658.22" CO="159.11" HC="0.79" NOx="1.21" PMx="0.06" fuel="1.14" electricity="0.00" noise="59.78" route="routeright" type="2" waiting="0.00" lane="right_1" pos="148.81" speed="0.36" angle="90.00" x="753.83" y="139.77"/>
        <vehicle id="2_1" eclass="HBEFA3/PC_G_EU4" CO2="2669.85" CO="158.93" HC="0.79" NOx="1.22" PMx="0.06" fuel="1.15" electricity="0.00" noise="60.19" route="routeright" type="2" waiting="0.00" lane="right_0" pos="257.28" speed="0.39" angle="90.00" x="860.13" y="136.47"/>
        <vehicle id="2_2" eclass="HBEFA3/PC_G_EU4" CO2="2658.76" CO="159.03" HC="0.79" NOx="1.21" PMx="0.06" fuel="1.14" electricity="0.00" noise="59.78" route="routeright" type="2" waiting="0.00" lane="right_1" pos="274.29" speed="0.37" angle="90.00" x="876.80" y="139.77"/>
        <vehicle id="2_3" eclass="HBEFA3/PC_G_EU4" CO2="2655.12" CO="159.07" HC="0.79" NOx="1.21" PMx="0.06" fuel="1.14" electricity="0.00" noise="59.64" route="routeright" type="2" waiting="0.00" lane="right_0" pos="385.19" speed="0.36" angle="90.00" x="985.49" y="136.47"/>
        <vehicle id="2_4" eclass="HBEFA3/PC_G_EU4" CO2="2646.84" CO="159.62" HC="0.79" NOx="1.21" PMx="0.06" fuel="1.14" electricity="0.00" noise="59.37" route="routeright" type="2" waiting="0.00" lane="right_1" pos="383.19" speed="0.32" angle="90.00" x="983.52" y="139.77"/>
        <vehicle id="3_0" eclass="HBEFA3/PC_G_EU4" CO2="2657.60" CO="159.20" HC="0.79" NOx="1.21" PMx="0.06" fuel="1.14" electricity="0.00" noise="59.77" route="routecenter" type="3" waiting="0.00" lane="center_0" pos="101.50" speed="0.36" angle="90.00" x="501.51" y="136.47"/>
        <vehicle id="3_1" eclass="HBEFA3/PC_G_EU4" CO2="2663.19" CO="159.79" HC="0.79" NOx="1.21" PMx="0.07" fuel="1.14" electricity="0.00" noise="60.18" route="routecenter" type="3" waiting="0.00" lane="center_1" pos="103.66" speed="0.33" angle="90.00" x="503.67" y="139.77"/>
        <vehicle id="3_2" eclass="HBEFA3/PC_G_EU4" CO2="2648.92" CO="159.13" HC="0.79" NOx="1.21" PMx="0.06" fuel="1.14" electricity="0.00" noise="59.38" route="routemerge" type="3" waiting="0.00" lane="merge_0" pos="26.32" speed="0.35" angle="45.00" x="347.08" y="86.16"/>
        <vehicle id="3_3" eclass="HBEFA3/PC_G_EU4" CO2="2678.34" CO="158.88" HC="0.79" NOx="1.22" PMx="0.07" fuel="1.15" electricity="0.00" noise="60.49" route="routediverge" type="3" waiting="0.00" lane="diverge_0" pos="36.90" speed="0.40" angle="135.00" x="631.10" y="107.99"/>
        <vehicle id="3_4" eclass="HBEFA3/PC_G_EU4" CO2="2673.91" CO="159.35" HC="0.79" NOx="1.22" PMx="0.07" fuel="1.15" electricity="0.00" noise="60.48" route="routediverge" type="3" waiting="0.00" lane="diverge_0" pos="149.57" speed="0.37" angle="135.00" x="706.50" y="32.58"/>
        <vehicle id="4_0" eclass="HBEFA3/PC_G_EU4" CO2="2652.18" CO="159.32" HC="0.79" NOx="1.21" PMx="0.06" fuel="1.14" electricity="0.00" noise="59.56" route="routeleft" type="4" waiting="0.00" lane="left_0" pos="86.96" speed="0.34" angle="90.00" x="184.64" y="136.47"/>
        <vehicle id="4_1" eclass="HBEFA3/PC_G_EU4" CO2="2646.35" CO="160.22" HC="0.79" NOx="1.21" PMx="0.06" fuel="1.14" electricity="0.00" noise="59.48" route="routeleft" type="4" waiting="0.00" lane="left_1" pos="80.36" speed="0.29" angle="90.00" x="178.22" y="139.77"/>
        <vehicle id="4_2" eclass="HBEFA3/PC_G_EU4" CO2="2673.92" CO="159.35" HC="0.79" NOx="1.22" PMx="0.07" fuel="1.15" electricity="0.00" noise="60.48" route="routeleft" type="4" waiting="0.00" lane="left_0" pos="197.18" speed="0.37" angle="90.00" x="291.93" y="136.47"/>
        <vehicle id="4_3" eclass="HBEFA3/PC_G_EU4" CO2="2665.15" CO="160.29" HC="0.79" NOx="1.22" PMx="0.07" fuel="1.15" electricity="0.00" noise="60.45" route="routeleft" type="4" waiting="0.00" lane="left_1" pos="202.69" speed="0.30" angle="90.00" x="297.30" y="139.77"/>
        <vehicle id="4_4" eclass="HBEFA3/PC_G_EU4" CO2="2646.97" CO="159.26" HC="0.79" NOx="1.21" PMx="0.06" fuel="1.14" electricity="0.00" noise="59.31" route="!4_4!var#1" type="4" waiting="0.00" lane="inflow_merge_0" pos="19.04" speed="0.34" angle="45.00" x="273.21" y="12.29"/>
    </timestep>
    <timestep time="0.80">
        <vehicle id="1_0" eclass="HBEFA3/PC_G_EU4" CO2="2706.10" CO="156.00" HC="0.77" NOx="1.23" PMx="0.06" fuel="1.16" electricity="0.00" noise="60.57" route="!1_0!var#1" type="1" waiting="0.00" lane="inflow_highway_0" pos="2.01" speed="0.60" angle="90.00" x="2.01" y="136.47"/>
        <vehicle id="1_1" eclass="HBEFA3/PC_G_EU4" CO2="2673.04" CO="156.90" HC="0.78" NOx="1.21" PMx="0.06" fuel="1.15" electricity="0.00" noise="59.86" route="!1_1!var#1" type="1" waiting="0.00" lane="inflow_highway_1" pos="13.87" speed="0.51" angle="90.00" x="13.87" y="139.77"/>
        <vehicle id="1_2" eclass="HBEFA3/PC_G_EU4" CO2="2698.74" CO="156.75" HC="0.78" NOx="1.22" PMx="0.06" fuel="1.16" electricity="0.00" noise="60.55" route="routeright" type="1" waiting="0.00" lane="right_0" pos="40.03" speed="0.55" angle="90.00" x="647.21" y="136.47"/>
        <vehicle id="1_3" eclass="HBEFA3/PC_G_EU4" CO2="2699.15" CO="156.71" HC="0.78" NOx="1.22" PMx="0.06" fuel="1.16" electricity="0.00" noise="60.55" route="routeright" type="1" waiting="0.00" lane="right_1" pos="23.46" speed="0.55" angle="90.00" x="630.97" y="139.77"/>
        <vehicle id="1_4" eclass="HBEFA3/PC_G_EU4" CO2="2698.29" CO="156.80" HC="0.78" NOx="1.22" PMx="0.06" fuel="1.16" electricity="0.00" noise="60.54" route="routeright" type="1" waiting="0.00" lane="right_0" pos="136.61" speed="0.54" angle="90.00" x="741.86" y="136.47"/>
        <vehicle id="2_0" eclass="HBEFA3/PC_G_EU4" CO2="2700.85" CO="156.53" HC="0.78" NOx="1.22" PMx="0.06" fuel="1.16" electricity="0.00" noise="60.55" route="routeright" type="2" waiting="0.00" lane="right_1" pos="148.93" speed="0.56" angle="90.00" x="753.94" y="139.77"/>
        <vehicle id="2_1" eclass="HBEFA3/PC_G_EU4" CO2="2685.03" CO="156.17" HC="0.77" NOx="1.22" PMx="0.06" fuel="1.15" electricity="0.00" noise="60.07" route="routeright" type="2" waiting="0.00" lane="right_0" pos="257.40" speed="0.56" angle="90.00" x="860.24" y="136.47"/>
        <vehicle id="2_2" eclass="HBEFA3/PC_G_EU4" CO2="2701.65" CO="156.45" HC="0.78" NOx="1.22" PMx="0.06" fuel="1.16" electricity="0.00" noise="60.55" route="routeright" type="2" waiting="0.00" lane="right_1" pos="274.40" speed="0.57" angle="90.00" x="876.91" y="139.77"/>
        <vehicle id="2_3" eclass="HBEFA3/PC_G_EU4" CO2="2700.72" CO="156.55" HC="0.78" NOx="1.22" PMx="0.06" fuel="1.16" electricity="0.00" noise="60.55" route="routeright" type="2" waiting="0.00" lane="right_0" pos="385.31" speed="0.56" angle="90.00" x="985.60" y="136.47"/>
        <vehicle id="2_4" eclass="HBEFA3/PC_G_EU4" CO2="2694.93" CO="157.14" HC="0.78" NOx="1.22" PMx="0.06" fuel="1.16" electricity="0.00" noise="60.54" route="routeright" type="2" waiting="0.00" lane="right_1" pos="383.29" speed="0.52" angle="90.00" x="983.63" y="139.77"/>
        <vehicle id="3_0" eclass="HBEFA3/PC_G_EU4" CO2="2700.04" CO="156.62" HC="0.78" NOx="1.22" PMx="0.06" fuel="1.16" electricity="0.00" noise="60.55" route="routecenter" type="3" waiting="0.00" lane="center_0" pos="101.61" speed="0.56" angle="90.00" x="501.62" y="136.47"/>
        <vehicle id="3_1" eclass="HBEFA3/PC_G_EU4" CO2="2696.28" CO="157.00" HC="0.78" NOx="1.22" PMx="0.06" fuel="1.16" electricity="0.00" noise="60.54" route="routecenter" type="3" waiting="0.00" lane="center_1" pos="103.76" speed="0.53" angle="90.00" x="503.78" y="139.77"/>
        <vehicle id="3_2" eclass="HBEFA3/PC_G_EU4" CO2="2691.68" CO="156.71" HC="0.78" NOx="1.22" PMx="0.06" fuel="1.16" electricity="0.00" noise="60.35" route="routemerge" type="3" waiting="0.00" lane="merge_0" pos="26.43" speed="0.54" angle="45.00" x="347.14" y="86.23"/>
        <vehicle id="3_3" eclass="HBEFA3/PC_G_EU4" CO2="2660.58" CO="155.98" HC="0.77" NOx="1.21" PMx="0.06" fuel="1.14" electricity="0.00" noise="59.37" route="routediverge" type="3" waiting="0.00" lane="diverge_0" pos="37.01" speed="0.55" angle="135.00" x="631.17" y="107.91"/>
        <vehicle id="3_4" eclass="HBEFA3/PC_G_EU4" CO2="2663.50" CO="156.48" HC="0.77" NOx="1.21" PMx="0.06" fuel="1.14" electricity="0.00" noise="59.51" route="routediverge" type="3" waiting="0.00" lane="diverge_0" pos="149.67" speed="0.52" angle="135.00" x="706.57" y="32.51"/>
        <vehicle id="4_0" eclass="HBEFA3/PC_G_EU4" CO2="2698.18" CO="156.81" HC="0.78" NOx="1.22" PMx="0.06" fuel="1.16" electricity="0.00" noise="60.54" route="routeleft" type="4" waiting="0.00" lane="left_0" pos="87.06" speed="0.54" angle="90.00" x="184.75" y="136.47"/>
        <vehicle id="4_1" eclass="HBEFA3/PC_G_EU4" CO2="2670.53" CO="157.70" HC="0.78" NOx="1.21" PMx="0.06" fuel="1.15" electricity="0.00" noise="59.93" route="routeleft" type="4" waiting="0.00" lane="left_1" pos="80.45" speed="0.46" angle="90.00" x="178.31" y="139.77"/>
        <vehicle id="4_2" eclass="HBEFA3/PC_G_EU4" CO2="2670.15" CO="156.47" HC="0.77" NOx="1.21" PMx="0.06" fuel="1.15" electricity="0.00" noise="59.71" route="routeleft" type="4" waiting="0.00" lane="left_0" pos="197.28" speed="0.53" angle="90.00" x="292.03" y="136.47"/>
        <vehicle id="4_3" eclass="HBEFA3/PC_G_EU4" CO2="2692.60" CO="157.38" HC="0.78" NOx="1.22" PMx="0.06" fuel="1.16" electricity="0.00" noise="60.53" route="routeleft" type="4" waiting="0.00" lane="left_1" pos="202.79" speed="0.50" angle="90.00" x="297.40" y="139.77"/>
        <vehicle id="4_4" eclass="HBEFA3/PC_G_EU4" CO2="2697.80" CO="156.85" HC="0.78" NOx="1.22" PMx="0.06" fuel="1.16" electricity="0.00" noise="60.54" route="!4_4!var#1" type="4" waiting="0.00" lane="inflow_merge_0" pos="19.15" speed="0.54" angle="45.00" x="273.29" y="12.37"/>
    </timestep>
    <timestep time="1.00">
        <vehicle id="1_0" eclass="HBEFA3/PC_G_EU4" CO2="2668.71" CO="152.82" HC="0.76" NOx="1.20" PMx="0.06" fuel="1.15" electricity="0.00" noise="59.31" route="!1_0!var#1" type="1" waiting="0.00" lane="inflow_highway_0" pos="2.16" speed="0.74" angle="90.00" x="2.16" y="136.47"/>