<?xml version="1.0" encoding="UTF-8"?>

<!-- generated on Mon Nov 19 21:11:25 2018 by SUMO gui Version b'v0_31_0-812-g1d4338ab80'
<?xml version="1.0" encoding="UTF-8"?>

<configuration xmlns:xsi="http://www.w3.org/2001/XMLSchema-instance" xsi:noNamespaceSchemaLocation="http://sumo.dlr.de/xsd/sumoConfiguration.xsd">

    <input>
        <net-file value="/Users/barryfan/flow/flow/scenarios/debug/cfg/merge-baseline_20181119-2111241542690684.895394.net.xml"/>
        <route-files value="/Users/barryfan/flow/flow/scenarios/debug/cfg/merge-baseline_20181119-2111241542690684.895394.rou.xml"/>
        <additional-files value="/Users/barryfan/flow/flow/scenarios/debug/cfg/merge-baseline_20181119-2111241542690684.895394.add.xml"/>
    </input>

    <output>
        <emission-output value="./data/merge-baseline_20181119-2111241542690684.895394-emission.xml"/>
    </output>

    <time>
        <begin value="0"/>
        <step-length value="0.2"/>
    </time>

    <processing>
        <lateral-resolution value="0.2"/>
        <time-to-teleport value="-1"/>
    </processing>

    <report>
        <no-step-log value="true"/>
    </report>

    <traci_server>
        <remote-port value="63486"/>
    </traci_server>

    <gui_only>
        <gui-settings-file value="/Users/barryfan/flow/flow/scenarios/debug/cfg/merge-baseline_20181119-2111241542690684.895394.gui.cfg"/>
        <tracker-interval value="0.2"/>
    </gui_only>

</configuration>
-->

<emission-export xmlns:xsi="http://www.w3.org/2001/XMLSchema-instance" xsi:noNamespaceSchemaLocation="http://sumo.dlr.de/xsd/emission_file.xsd">
    <timestep time="0.00">
        <vehicle id="1_0" eclass="HBEFA3/PC_G_EU4" CO2="2624.72" CO="164.78" HC="0.81" NOx="1.20" PMx="0.07" fuel="1.13" electricity="0.00" noise="55.94" route="routemerge" type="1" waiting="0.00" lane="merge_0" pos="9.52" speed="0.00" angle="45.00" x="336.47" y="75.55"/>
        <vehicle id="1_1" eclass="HBEFA3/PC_G_EU4" CO2="2624.72" CO="164.78" HC="0.81" NOx="1.20" PMx="0.07" fuel="1.13" electricity="0.00" noise="55.94" route="routecenter" type="1" waiting="0.00" lane="center_0" pos="29.43" speed="0.00" angle="90.00" x="429.12" y="136.47"/>
        <vehicle id="1_2" eclass="HBEFA3/PC_G_EU4" CO2="2624.72" CO="164.78" HC="0.81" NOx="1.20" PMx="0.07" fuel="1.13" electricity="0.00" noise="55.94" route="routecenter" type="1" waiting="0.00" lane="center_1" pos="21.71" speed="0.00" angle="90.00" x="421.36" y="139.77"/>
        <vehicle id="1_3" eclass="HBEFA3/PC_G_EU4" CO2="2624.72" CO="164.78" HC="0.81" NOx="1.20" PMx="0.07" fuel="1.13" electricity="0.00" noise="55.94" route="routecenter" type="1" waiting="0.00" lane="center_0" pos="150.53" speed="0.00" angle="90.00" x="550.76" y="136.47"/>
        <vehicle id="1_4" eclass="HBEFA3/PC_G_EU4" CO2="2624.72" CO="164.78" HC="0.81" NOx="1.20" PMx="0.07" fuel="1.13" electricity="0.00" noise="55.94" route="routecenter" type="1" waiting="0.00" lane="center_1" pos="149.74" speed="0.00" angle="90.00" x="549.96" y="139.77"/>
        <vehicle id="2_0" eclass="HBEFA3/PC_G_EU4" CO2="2624.72" CO="164.78" HC="0.81" NOx="1.20" PMx="0.07" fuel="1.13" electricity="0.00" noise="55.94" route="routeinflow_merge" type="2" waiting="0.00" lane="inflow_merge_0" pos="69.58" speed="0.00" angle="45.00" x="308.95" y="48.03"/>
        <vehicle id="2_1" eclass="HBEFA3/PC_G_EU4" CO2="2624.72" CO="164.78" HC="0.81" NOx="1.20" PMx="0.07" fuel="1.13" electricity="0.00" noise="55.94" route="routeleft" type="2" waiting="0.00" lane="left_0" pos="86.76" speed="0.00" angle="90.00" x="184.45" y="136.47"/>
        <vehicle id="2_2" eclass="HBEFA3/PC_G_EU4" CO2="2624.72" CO="164.78" HC="0.81" NOx="1.20" PMx="0.07" fuel="1.13" electricity="0.00" noise="55.94" route="routeleft" type="2" waiting="0.00" lane="left_1" pos="84.07" speed="0.00" angle="90.00" x="181.83" y="139.77"/>
        <vehicle id="2_3" eclass="HBEFA3/PC_G_EU4" CO2="2624.72" CO="164.78" HC="0.81" NOx="1.20" PMx="0.07" fuel="1.13" electricity="0.00" noise="55.94" route="routeleft" type="2" waiting="0.00" lane="left_0" pos="198.52" speed="0.00" angle="90.00" x="293.24" y="136.47"/>
        <vehicle id="2_4" eclass="HBEFA3/PC_G_EU4" CO2="2624.72" CO="164.78" HC="0.81" NOx="1.20" PMx="0.07" fuel="1.13" electricity="0.00" noise="55.94" route="routeleft" type="2" waiting="0.00" lane="left_1" pos="198.48" speed="0.00" angle="90.00" x="293.20" y="139.77"/>
        <vehicle id="3_0" eclass="HBEFA3/PC_G_EU4" CO2="2624.72" CO="164.78" HC="0.81" NOx="1.20" PMx="0.07" fuel="1.13" electricity="0.00" noise="55.94" route="routeright" type="3" waiting="0.00" lane="right_0" pos="23.86" speed="0.00" angle="90.00" x="631.36" y="136.47"/>
        <vehicle id="3_1" eclass="HBEFA3/PC_G_EU4" CO2="2624.72" CO="164.78" HC="0.81" NOx="1.20" PMx="0.07" fuel="1.13" electricity="0.00" noise="55.94" route="routeright" type="3" waiting="0.00" lane="right_1" pos="20.52" speed="0.00" angle="90.00" x="628.09" y="139.77"/>
        <vehicle id="3_2" eclass="HBEFA3/PC_G_EU4" CO2="2624.72" CO="164.78" HC="0.81" NOx="1.20" PMx="0.07" fuel="1.13" electricity="0.00" noise="55.94" route="routeright" type="3" waiting="0.00" lane="right_0" pos="151.41" speed="0.00" angle="90.00" x="756.37" y="136.47"/>
        <vehicle id="3_3" eclass="HBEFA3/PC_G_EU4" CO2="2624.72" CO="164.78" HC="0.81" NOx="1.20" PMx="0.07" fuel="1.13" electricity="0.00" noise="55.94" route="routeright" type="3" waiting="0.00" lane="right_1" pos="143.27" speed="0.00" angle="90.00" x="748.39" y="139.77"/>
        <vehicle id="3_4" eclass="HBEFA3/PC_G_EU4" CO2="2624.72" CO="164.78" HC="0.81" NOx="1.20" PMx="0.07" fuel="1.13" electricity="0.00" noise="55.94" route="routeright" type="3" waiting="0.00" lane="right_0" pos="260.63" speed="0.00" angle="90.00" x="863.41" y="136.47"/>
        <vehicle id="4_0" eclass="HBEFA3/PC_G_EU4" CO2="2624.72" CO="164.78" HC="0.81" NOx="1.20" PMx="0.07" fuel="1.13" electricity="0.00" noise="55.94" route="routeright" type="4" waiting="0.00" lane="right_1" pos="257.06" speed="0.00" angle="90.00" x="859.91" y="139.77"/>
        <vehicle id="4_1" eclass="HBEFA3/PC_G_EU4" CO2="2624.72" CO="164.78" HC="0.81" NOx="1.20" PMx="0.07" fuel="1.13" electricity="0.00" noise="55.94" route="routeright" type="4" waiting="0.00" lane="right_0" pos="382.83" speed="0.00" angle="90.00" x="983.18" y="136.47"/>
        <vehicle id="4_2" eclass="HBEFA3/PC_G_EU4" CO2="2624.72" CO="164.78" HC="0.81" NOx="1.20" PMx="0.07" fuel="1.13" electricity="0.00" noise="55.94" route="routeright" type="4" waiting="0.00" lane="right_1" pos="375.43" speed="0.00" angle="90.00" x="975.92" y="139.77"/>
        <vehicle id="4_3" eclass="HBEFA3/PC_G_EU4" CO2="2624.72" CO="164.78" HC="0.81" NOx="1.20" PMx="0.07" fuel="1.13" electricity="0.00" noise="55.94" route="routediverge" type="4" waiting="0.00" lane="diverge_0" pos="1.82" speed="0.00" angle="136.68" x="607.63" y="131.46"/>
        <vehicle id="4_4" eclass="HBEFA3/PC_G_EU4" CO2="2624.72" CO="164.78" HC="0.81" NOx="1.20" PMx="0.07" fuel="1.13" electricity="0.00" noise="55.94" route="routediverge" type="4" waiting="0.00" lane="diverge_0" pos="132.80" speed="0.00" angle="135.00" x="695.28" y="43.80"/>
    </timestep>
    <timestep time="0.20">
        <vehicle id="1_0" eclass="HBEFA3/PC_G_EU4" CO2="2624.72" CO="164.78" HC="0.81" NOx="1.20" PMx="0.07" fuel="1.13" electricity="0.00" noise="55.94" route="routemerge" type="1" waiting="0.00" lane="merge_0" pos="9.52" speed="0.00" angle="45.00" x="336.47" y="75.55"/>
        <vehicle id="1_1" eclass="HBEFA3/PC_G_EU4" CO2="2624.72" CO="164.78" HC="0.81" NOx="1.20" PMx="0.07" fuel="1.13" electricity="0.00" noise="55.94" route="routecenter" type="1" waiting="0.00" lane="center_0" pos="29.43" speed="0.00" angle="90.00" x="429.12" y="136.47"/>
        <vehicle id="1_2" eclass="HBEFA3/PC_G_EU4" CO2="2624.72" CO="164.78" HC="0.81" NOx="1.20" PMx="0.07" fuel="1.13" electricity="0.00" noise="55.94" route="routecenter" type="1" waiting="0.00" lane="center_1" pos="21.71" speed="0.00" angle="90.00" x="421.36" y="139.77"/>
        <vehicle id="1_3" eclass="HBEFA3/PC_G_EU4" CO2="2624.72" CO="164.78" HC="0.81" NOx="1.20" PMx="0.07" fuel="1.13" electricity="0.00" noise="55.94" route="routecenter" type="1" waiting="0.00" lane="center_0" pos="150.53" speed="0.00" angle="90.00" x="550.76" y="136.47"/>
        <vehicle id="1_4" eclass="HBEFA3/PC_G_EU4" CO2="2624.72" CO="164.78" HC="0.81" NOx="1.20" PMx="0.07" fuel="1.13" electricity="0.00" noise="55.94" route="routecenter" type="1" waiting="0.00" lane="center_1" pos="149.74" speed="0.00" angle="90.00" x="549.96" y="139.77"/>
        <vehicle id="2_0" eclass="HBEFA3/PC_G_EU4" CO2="2624.72" CO="164.78" HC="0.81" NOx="1.20" PMx="0.07" fuel="1.13" electricity="0.00" noise="55.94" route="routeinflow_merge" type="2" waiting="0.00" lane="inflow_merge_0" pos="69.58" speed="0.00" angle="45.00" x="308.95" y="48.03"/>
        <vehicle id="2_1" eclass="HBEFA3/PC_G_EU4" CO2="2624.72" CO="164.78" HC="0.81" NOx="1.20" PMx="0.07" fuel="1.13" electricity="0.00" noise="55.94" route="routeleft" type="2" waiting="0.00" lane="left_0" pos="86.76" speed="0.00" angle="90.00" x="184.45" y="136.47"/>
        <vehicle id="2_2" eclass="HBEFA3/PC_G_EU4" CO2="2624.72" CO="164.78" HC="0.81" NOx="1.20" PMx="0.07" fuel="1.13" electricity="0.00" noise="55.94" route="routeleft" type="2" waiting="0.00" lane="left_1" pos="84.07" speed="0.00" angle="90.00" x="181.83" y="139.77"/>
        <vehicle id="2_3" eclass="HBEFA3/PC_G_EU4" CO2="2624.72" CO="164.78" HC="0.81" NOx="1.20" PMx="0.07" fuel="1.13" electricity="0.00" noise="55.94" route="routeleft" type="2" waiting="0.00" lane="left_0" pos="198.52" speed="0.00" angle="90.00" x="293.24" y="136.47"/>
        <vehicle id="2_4" eclass="HBEFA3/PC_G_EU4" CO2="2624.72" CO="164.78" HC="0.81" NOx="1.20" PMx="0.07" fuel="1.13" electricity="0.00" noise="55.94" route="routeleft" type="2" waiting="0.00" lane="left_1" pos="198.48" speed="0.00" angle="90.00" x="293.20" y="139.77"/>
        <vehicle id="3_0" eclass="HBEFA3/PC_G_EU4" CO2="2624.72" CO="164.78" HC="0.81" NOx="1.20" PMx="0.07" fuel="1.13" electricity="0.00" noise="55.94" route="routeright" type="3" waiting="0.00" lane="right_0" pos="23.86" speed="0.00" angle="90.00" x="631.36" y="136.47"/>
        <vehicle id="3_1" eclass="HBEFA3/PC_G_EU4" CO2="2624.72" CO="164.78" HC="0.81" NOx="1.20" PMx="0.07" fuel="1.13" electricity="0.00" noise="55.94" route="routeright" type="3" waiting="0.00" lane="right_1" pos="20.52" speed="0.00" angle="90.00" x="628.09" y="139.77"/>
        <vehicle id="3_2" eclass="HBEFA3/PC_G_EU4" CO2="2624.72" CO="164.78" HC="0.81" NOx="1.20" PMx="0.07" fuel="1.13" electricity="0.00" noise="55.94" route="routeright" type="3" waiting="0.00" lane="right_0" pos="151.41" speed="0.00" angle="90.00" x="756.37" y="136.47"/>
        <vehicle id="3_3" eclass="HBEFA3/PC_G_EU4" CO2="2624.72" CO="164.78" HC="0.81" NOx="1.20" PMx="0.07" fuel="1.13" electricity="0.00" noise="55.94" route="routeright" type="3" waiting="0.00" lane="right_1" pos="143.27" speed="0.00" angle="90.00" x="748.39" y="139.77"/>
        <vehicle id="3_4" eclass="HBEFA3/PC_G_EU4" CO2="2624.72" CO="164.78" HC="0.81" NOx="1.20" PMx="0.07" fuel="1.13" electricity="0.00" noise="55.94" route="routeright" type="3" waiting="0.00" lane="right_0" pos="260.63" speed="0.00" angle="90.00" x="863.41" y="136.47"/>
        <vehicle id="4_0" eclass="HBEFA3/PC_G_EU4" CO2="2624.72" CO="164.78" HC="0.81" NOx="1.20" PMx="0.07" fuel="1.13" electricity="0.00" noise="55.94" route="routeright" type="4" waiting="0.00" lane="right_1" pos="257.06" speed="0.00" angle="90.00" x="859.91" y="139.77"/>
        <vehicle id="4_1" eclass="HBEFA3/PC_G_EU4" CO2="2624.72" CO="164.78" HC="0.81" NOx="1.20" PMx="0.07" fuel="1.13" electricity="0.00" noise="55.94" route="routeright" type="4" waiting="0.00" lane="right_0" pos="382.83" speed="0.00" angle="90.00" x="983.18" y="136.47"/>
        <vehicle id="4_2" eclass="HBEFA3/PC_G_EU4" CO2="2624.72" CO="164.78" HC="0.81" NOx="1.20" PMx="0.07" fuel="1.13" electricity="0.00" noise="55.94" route="routeright" type="4" waiting="0.00" lane="right_1" pos="375.43" speed="0.00" angle="90.00" x="975.92" y="139.77"/>
        <vehicle id="4_3" eclass="HBEFA3/PC_G_EU4" CO2="2624.72" CO="164.78" HC="0.81" NOx="1.20" PMx="0.07" fuel="1.13" electricity="0.00" noise="55.94" route="routediverge" type="4" waiting="0.00" lane="diverge_0" pos="1.82" speed="0.00" angle="136.68" x="607.63" y="131.46"/>
        <vehicle id="4_4" eclass="HBEFA3/PC_G_EU4" CO2="2624.72" CO="164.78" HC="0.81" NOx="1.20" PMx="0.07" fuel="1.13" electricity="0.00" noise="55.94" route="routediverge" type="4" waiting="0.00" lane="diverge_0" pos="132.80" speed="0.00" angle="135.00" x="695.28" y="43.80"/>
    </timestep>
    <timestep time="0.40">
        <vehicle id="1_0" eclass="HBEFA3/PC_G_EU4" CO2="2627.98" CO="162.73" HC="0.80" NOx="1.20" PMx="0.07" fuel="1.13" electricity="0.00" noise="58.62" route="routemerge" type="1" waiting="0.00" lane="merge_0" pos="9.54" speed="0.12" angle="45.00" x="336.49" y="75.57"/>
        <vehicle id="1_1" eclass="HBEFA3/PC_G_EU4" CO2="2647.48" CO="161.90" HC="0.80" NOx="1.21" PMx="0.07" fuel="1.14" electricity="0.00" noise="60.20" route="routecenter" type="1" waiting="0.00" lane="center_0" pos="29.47" speed="0.19" angle="90.00" x="429.15" y="136.47"/>
        <vehicle id="1_2" eclass="HBEFA3/PC_G_EU4" CO2="2644.31" CO="161.99" HC="0.80" NOx="1.21" PMx="0.07" fuel="1.14" electricity="0.00" noise="60.00" route="routecenter" type="1" waiting="0.00" lane="center_1" pos="21.75" speed="0.18" angle="90.00" x="421.39" y="139.77"/>
        <vehicle id="1_3" eclass="HBEFA3/PC_G_EU4" CO2="2640.71" CO="162.11" HC="0.80" NOx="1.21" PMx="0.07" fuel="1.14" electricity="0.00" noise="59.75" route="routecenter" type="1" waiting="0.00" lane="center_0" pos="150.57" speed="0.17" angle="90.00" x="550.79" y="136.47"/>
        <vehicle id="1_4" eclass="HBEFA3/PC_G_EU4" CO2="2640.50" CO="162.11" HC="0.80" NOx="1.21" PMx="0.07" fuel="1.14" electricity="0.00" noise="59.74" route="routecenter" type="1" waiting="0.00" lane="center_1" pos="149.77" speed="0.17" angle="90.00" x="550.00" y="139.77"/>
        <vehicle id="2_0" eclass="HBEFA3/PC_G_EU4" CO2="2633.45" CO="162.41" HC="0.80" NOx="1.20" PMx="0.07" fuel="1.13" electricity="0.00" noise="59.18" route="routeinflow_merge" type="2" waiting="0.00" lane="inflow_merge_0" pos="69.61" speed="0.14" angle="45.00" x="308.97" y="48.05"/>
        <vehicle id="2_1" eclass="HBEFA3/PC_G_EU4" CO2="2643.42" CO="162.02" HC="0.80" NOx="1.21" PMx="0.07" fuel="1.14" electricity="0.00" noise="59.94" route="routeleft" type="2" waiting="0.00" lane="left_0" pos="86.79" speed="0.18" angle="90.00" x="184.48" y="136.47"/>
        <vehicle id="2_2" eclass="HBEFA3/PC_G_EU4" CO2="2651.22" CO="161.80" HC="0.80" NOx="1.21" PMx="0.07" fuel="1.14" electricity="0.00" noise="60.41" route="routeleft" type="2" waiting="0.00" lane="left_1" pos="84.11" speed="0.20" angle="90.00" x="181.87" y="139.77"/>
        <vehicle id="2_3" eclass="HBEFA3/PC_G_EU4" CO2="2633.85" CO="162.39" HC="0.80" NOx="1.20" PMx="0.07" fuel="1.13" electricity="0.00" noise="59.22" route="routeleft" type="2" waiting="0.00" lane="left_0" pos="198.55" speed="0.15" angle="90.00" x="293.27" y="136.47"/>
        <vehicle id="2_4" eclass="HBEFA3/PC_G_EU4" CO2="2629.04" CO="162.66" HC="0.80" NOx="1.20" PMx="0.07" fuel="1.13" electricity="0.00" noise="58.74" route="routeleft" type="2" waiting="0.00" lane="left_1" pos="198.51" speed="0.13" angle="90.00" x="293.23" y="139.77"/>
        <vehicle id="3_0" eclass="HBEFA3/PC_G_EU4" CO2="2651.22" CO="161.80" HC="0.80" NOx="1.21" PMx="0.07" fuel="1.14" electricity="0.00" noise="60.41" route="routeright" type="3" waiting="0.00" lane="right_0" pos="23.90" speed="0.20" angle="90.00" x="631.40" y="136.47"/>
        <vehicle id="3_1" eclass="HBEFA3/PC_G_EU4" CO2="2651.22" CO="161.80" HC="0.80" NOx="1.21" PMx="0.07" fuel="1.14" electricity="0.00" noise="60.41" route="routeright" type="3" waiting="0.00" lane="right_1" pos="20.56" speed="0.20" angle="90.00" x="628.13" y="139.77"/>
        <vehicle id="3_2" eclass="HBEFA3/PC_G_EU4" CO2="2643.41" CO="162.02" HC="0.80" NOx="1.21" PMx="0.07" fuel="1.14" electricity="0.00" noise="59.94" route="routeright" type="3" waiting="0.00" lane="right_0" pos="151.44" speed="0.18" angle="90.00" x="756.40" y="136.47"/>
        <vehicle id="3_3" eclass="HBEFA3/PC_G_EU4" CO2="2643.37" CO="162.02" HC="0.80" NOx="1.21" PMx="0.07" fuel="1.14" electricity="0.00" noise="59.94" route="routeright" type="3" waiting="0.00" lane="right_1" pos="143.31" speed="0.18" angle="90.00" x="748.43" y="139.77"/>
        <vehicle id="3_4" eclass="HBEFA3/PC_G_EU4" CO2="2651.22" CO="161.80" HC="0.80" NOx="1.21" PMx="0.07" fuel="1.14" electricity="0.00" noise="60.41" route="routeright" type="3" waiting="0.00" lane="right_0" pos="260.67" speed="0.20" angle="90.00" x="863.45" y="136.47"/>
        <vehicle id="4_0" eclass="HBEFA3/PC_G_EU4" CO2="2651.22" CO="161.80" HC="0.80" NOx="1.21" PMx="0.07" fuel="1.14" electricity="0.00" noise="60.41" route="routeright" type="4" waiting="0.00" lane="right_1" pos="257.10" speed="0.20" angle="90.00" x="859.95" y="139.77"/>
        <vehicle id="4_1" eclass="HBEFA3/PC_G_EU4" CO2="2628.75" CO="162.68" HC="0.80" NOx="1.20" PMx="0.07" fuel="1.13" electricity="0.00" noise="58.71" route="routeright" type="4" waiting="0.00" lane="right_0" pos="382.86" speed="0.12" angle="90.00" x="983.20" y="136.47"/>
        <vehicle id="4_2" eclass="HBEFA3/PC_G_EU4" CO2="2651.22" CO="161.80" HC="0.80" NOx="1.21" PMx="0.07" fuel="1.14" electricity="0.00" noise="60.41" route="routeright" type="4" waiting="0.00" lane="right_1" pos="375.47" speed="0.20" angle="90.00" x="975.96" y="139.77"/>
        <vehicle id="4_3" eclass="HBEFA3/PC_G_EU4" CO2="2651.22" CO="161.80" HC="0.80" NOx="1.21" PMx="0.07" fuel="1.14" electricity="0.00" noise="60.41" route="routediverge" type="4" waiting="0.00" lane="diverge_0" pos="1.86" speed="0.20" angle="136.67" x="607.65" y="131.44"/>
        <vehicle id="4_4" eclass="HBEFA3/PC_G_EU4" CO2="2651.22" CO="161.80" HC="0.80" NOx="1.21" PMx="0.07" fuel="1.14" electricity="0.00" noise="60.41" route="routediverge" type="4" waiting="0.00" lane="diverge_0" pos="132.84" speed="0.20" angle="135.00" x="695.31" y="43.78"/>
    </timestep>
    <timestep time="0.60">
        <vehicle id="1_0" eclass="HBEFA3/PC_G_EU4" CO2="2653.69" CO="160.23" HC="0.79" NOx="1.21" PMx="0.07" fuel="1.14" electricity="0.00" noise="59.87" route="routemerge" type="1" waiting="0.00" lane="merge_0" pos="9.60" speed="0.29" angle="45.00" x="336.52" y="75.60"/>
        <vehicle id="1_1" eclass="HBEFA3/PC_G_EU4" CO2="2677.00" CO="159.02" HC="0.79" NOx="1.22" PMx="0.07" fuel="1.15" electricity="0.00" noise="60.49" route="routecenter" type="1" waiting="0.00" lane="center_0" pos="29.55" speed="0.39" angle="90.00" x="429.23" y="136.47"/>
        <vehicle id="1_2" eclass="HBEFA3/PC_G_EU4" CO2="2675.79" CO="159.15" HC="0.79" NOx="1.22" PMx="0.07" fuel="1.15" electricity="0.00" noise="60.48" route="routecenter" type="1" waiting="0.00" lane="center_1" pos="21.82" speed="0.38" angle="90.00" x="421.47" y="139.77"/>
        <vehicle id="1_3" eclass="HBEFA3/PC_G_EU4" CO2="2650.60" CO="159.55" HC="0.79" NOx="1.21" PMx="0.06" fuel="1.14" electricity="0.00" noise="59.54" route="routecenter" type="1" waiting="0.00" lane="center_0" pos="150.63" speed="0.33" angle="90.00" x="550.86" y="136.47"/>
        <vehicle id="1_4" eclass="HBEFA3/PC_G_EU4" CO2="2652.56" CO="159.53" HC="0.79" NOx="1.21" PMx="0.06" fuel="1.14" electricity="0.00" noise="59.63" route="routecenter" type="1" waiting="0.00" lane="center_1" pos="149.84" speed="0.33" angle="90.00" x="550.06" y="139.77"/>
        <vehicle id="2_0" eclass="HBEFA3/PC_G_EU4" CO2="2670.81" CO="159.68" HC="0.79" NOx="1.22" PMx="0.07" fuel="1.15" electricity="0.00" noise="60.47" route="routeinflow_merge" type="2" waiting="0.00" lane="inflow_merge_0" pos="69.68" speed="0.34" angle="45.00" x="309.02" y="48.10"/>
        <vehicle id="2_1" eclass="HBEFA3/PC_G_EU4" CO2="2675.43" CO="159.19" HC="0.79" NOx="1.22" PMx="0.07" fuel="1.15" electricity="0.00" noise="60.48" route="routeleft" type="2" waiting="0.00" lane="left_0" pos="86.87" speed="0.38" angle="90.00" x="184.56" y="136.47"/>
        <vehicle id="2_2" eclass="HBEFA3/PC_G_EU4" CO2="2678.34" CO="158.88" HC="0.79" NOx="1.22" PMx="0.07" fuel="1.15" electricity="0.00" noise="60.49" route="routeleft" type="2" waiting="0.00" lane="left_1" pos="84.19" speed="0.40" angle="90.00" x="181.95" y="139.77"/>
        <vehicle id="2_3" eclass="HBEFA3/PC_G_EU4" CO2="2669.31" CO="159.67" HC="0.79" NOx="1.22" PMx="0.07" fuel="1.15" electricity="0.00" noise="60.40" route="routeleft" type="2" waiting="0.00" lane="left_0" pos="198.62" speed="0.34" angle="90.00" x="293.34" y="136.47"/>
        <vehicle id="2_4" eclass="HBEFA3/PC_G_EU4" CO2="2649.51" CO="160.22" HC="0.79" NOx="1.21" PMx="0.07" fuel="1.14" electricity="0.00" noise="59.65" route="routeleft" type="2" waiting="0.00" lane="left_1" pos="198.56" speed="0.29" angle="90.00" x="293.28" y="139.77"/>
        <vehicle id="3_0" eclass="HBEFA3/PC_G_EU4" CO2="2660.90" CO="159.01" HC="0.79" NOx="1.21" PMx="0.06" fuel="1.14" electricity="0.00" noise="59.86" route="routeright" type="3" waiting="0.00" lane="right_0" pos="23.97" speed="0.37" angle="90.00" x="631.47" y="136.47"/>
        <vehicle id="3_1" eclass="HBEFA3/PC_G_EU4" CO2="2678.34" CO="158.88" HC="0.79" NOx="1.22" PMx="0.07" fuel="1.15" electricity="0.00" noise="60.49" route="routeright" type="3" waiting="0.00" lane="right_1" pos="20.64" speed="0.40" angle="90.00" x="628.21" y="139.77"/>
        <vehicle id="3_2" eclass="HBEFA3/PC_G_EU4" CO2="2652.42" CO="159.41" HC="0.79" NOx="1.21" PMx="0.06" fuel="1.14" electricity="0.00" noise="59.59" route="routeright" type="3" waiting="0.00" lane="right_0" pos="151.51" speed="0.34" angle="90.00" x="756.47" y="136.47"/>
        <vehicle id="3_3" eclass="HBEFA3/PC_G_EU4" CO2="2675.41" CO="159.19" HC="0.79" NOx="1.22" PMx="0.07" fuel="1.15" electricity="0.00" noise="60.48" route="routeright" type="3" waiting="0.00" lane="right_1" pos="143.38" speed="0.38" angle="90.00" x="748.50" y="139.77"/>
        <vehicle id="3_4" eclass="HBEFA3/PC_G_EU4" CO2="2677.85" CO="158.88" HC="0.79" NOx="1.22" PMx="0.07" fuel="1.15" electricity="0.00" noise="60.47" route="routeright" type="3" waiting="0.00" lane="right_0" pos="260.75" speed="0.40" angle="90.00" x="863.53" y="136.47"/>
        <vehicle id="4_0" eclass="HBEFA3/PC_G_EU4" CO2="2672.74" CO="158.91" HC="0.79" NOx="1.22" PMx="0.07" fuel="1.15" electricity="0.00" noise="60.30" route="routeright" type="4" waiting="0.00" lane="right_1" pos="257.17" speed="0.39" angle="90.00" x="860.02" y="139.77"/>
        <vehicle id="4_1" eclass="HBEFA3/PC_G_EU4" CO2="2660.36" CO="160.08" HC="0.79" NOx="1.21" PMx="0.07" fuel="1.14" electricity="0.00" noise="60.15" route="routeright" type="4" waiting="0.00" lane="right_0" pos="382.92" speed="0.31" angle="90.00" x="983.26" y="136.47"/>
        <vehicle id="4_2" eclass="HBEFA3/PC_G_EU4" CO2="2678.34" CO="158.88" HC="0.79" NOx="1.22" PMx="0.07" fuel="1.15" electricity="0.00" noise="60.49" route="routeright" type="4" waiting="0.00" lane="right_1" pos="375.55" speed="0.40" angle="90.00" x="976.04" y="139.77"/>
        <vehicle id="4_3" eclass="HBEFA3/PC_G_EU4" CO2="2678.34" CO="158.88" HC="0.79" NOx="1.22" PMx="0.07" fuel="1.15" electricity="0.00" noise="60.49" route="routediverge" type="4" waiting="0.00" lane="diverge_0" pos="1.94" speed="0.40" angle="136.63" x="607.71" y="131.38"/>
        <vehicle id="4_4" eclass="HBEFA3/PC_G_EU4" CO2="2644.79" CO="159.19" HC="0.79" NOx="1.20" PMx="0.06" fuel="1.14" electricity="0.00" noise="59.20" route="routediverge" type="4" waiting="0.00" lane="diverge_0" pos="132.91" speed="0.34" angle="135.00" x="695.35" y="43.73"/>
    </timestep>
    <timestep time="0.80">
        <vehicle id="1_0" eclass="HBEFA3/PC_G_EU4" CO2="2673.99" CO="157.57" HC="0.78" NOx="1.21" PMx="0.06" fuel="1.15" electricity="0.00" noise="60.01" route="routemerge" type="1" waiting="0.00" lane="merge_0" pos="9.70" speed="0.47" angle="45.00" x="336.58" y="75.66"/>
        <vehicle id="1_1" eclass="HBEFA3/PC_G_EU4" CO2="2703.29" CO="156.14" HC="0.77" NOx="1.23" PMx="0.06" fuel="1.16" electricity="0.00" noise="60.53" route="routecenter" type="1" waiting="0.00" lane="center_0" pos="29.67" speed="0.59" angle="90.00" x="429.35" y="136.47"/>
        <vehicle id="1_2" eclass="HBEFA3/PC_G_EU4" CO2="2686.65" CO="156.25" HC="0.77" NOx="1.22" PMx="0.06" fuel="1.15" electricity="0.00" noise="60.13" route="routecenter" type="1" waiting="0.00" lane="center_1" pos="21.93" speed="0.56" angle="90.00" x="421.58" y="139.77"/>
        <vehicle id="1_3" eclass="HBEFA3/PC_G_EU4" CO2="2696.10" CO="157.02" HC="0.78" NOx="1.22" PMx="0.06" fuel="1.16" electricity="0.00" noise="60.54" route="routecenter" type="1" waiting="0.00" lane="center_0" pos="150.74" speed="0.53" angle="90.00" x="550.97" y="136.47"/>
        <vehicle id="1_4" eclass="HBEFA3/PC_G_EU4" CO2="2696.55" CO="156.98" HC="0.78" NOx="1.22" PMx="0.06" fuel="1.16" electricity="0.00" noise="60.54" route="routecenter" type="1" waiting="0.00" lane="center_1" pos="149.94" speed="0.53" angle="90.00" x="550.17" y="139.77"/>
        <vehicle id="2_0" eclass="HBEFA3/PC_G_EU4" CO2="2698.37" CO="156.79" HC="0.78" NOx="1.22" PMx="0.06" fuel="1.16" electricity="0.00" noise="60.54" route="routeinflow_merge" type="2" waiting="0.00" lane="inflow_merge_0" pos="69.78" speed="0.54" angle="45.00" x="309.09" y="48.17"/>
        <vehicle id="2_1" eclass="HBEFA3/PC_G_EU4" CO2="2703.11" CO="156.30" HC="0.77" NOx="1.23" PMx="0.06" fuel="1.16" electricity="0.00" noise="60.56" route="routeleft" type="2" waiting="0.00" lane="left_0" pos="86.98" speed="0.58" angle="90.00" x="184.67" y="136.47"/>
        <vehicle id="2_2" eclass="HBEFA3/PC_G_EU4" CO2="2640.23" CO="156.03" HC="0.77" NOx="1.20" PMx="0.06" fuel="1.13" electricity="0.00" noise="58.76" route="routeleft" type="2" waiting="0.00" lane="left_1" pos="84.29" speed="0.52" angle="90.00" x="182.05" y="139.77"/>
        <vehicle id="2_3" eclass="HBEFA3/PC_G_EU4" CO2="2689.09" CO="156.81" HC="0.78" NOx="1.22" PMx="0.06" fuel="1.16" electricity="0.00" noise="60.30" route="routeleft" type="2" waiting="0.00" lane="left_0" pos="198.73" speed="0.53" angle="90.00" x="293.44" y="136.47"/>
        <vehicle id="2_4" eclass="HBEFA3/PC_G_EU4" CO2="2682.42" CO="157.61" HC="0.78" NOx="1.22" PMx="0.06" fuel="1.15" electricity="0.00" noise="60.28" route="routeleft" type="2" waiting="0.00" lane="left_1" pos="198.66" speed="0.48" angle="90.00" x="293.37" y="139.77"/>
        <vehicle id="3_0" eclass="HBEFA3/PC_G_EU4" CO2="2702.17" CO="156.40" HC="0.78" NOx="1.23" PMx="0.06" fuel="1.16" electricity="0.00" noise="60.55" route="routeright" type="3" waiting="0.00" lane="right_0" pos="24.09" speed="0.57" angle="90.00" x="631.59" y="136.47"/>
        <vehicle id="3_1" eclass="HBEFA3/PC_G_EU4" CO2="2706.10" CO="156.00" HC="0.77" NOx="1.23" PMx="0.06" fuel="1.16" electricity="0.00" noise="60.57" route="routeright" type="3" waiting="0.00" lane="right_1" pos="20.76" speed="0.60" angle="90.00" x="628.32" y="139.77"/>
        <vehicle id="3_2" eclass="HBEFA3/PC_G_EU4" CO2="2697.55" CO="156.87" HC="0.78" NOx="1.22" PMx="0.06" fuel="1.16" electricity="0.00" noise="60.54" route="routeright" type="3" waiting="0.00" lane="right_0" pos="151.62" speed="0.54" angle="90.00" x="756.57" y="136.47"/>
        <vehicle id="3_3" eclass="HBEFA3/PC_G_EU4" CO2="2639.29" CO="156.39" HC="0.77" NOx="1.20" PMx="0.06" fuel="1.13" electricity="0.00" noise="58.75" route="routeright" type="3" waiting="0.00" lane="right_1" pos="143.48" speed="0.50" angle="90.00" x="748.60" y="139.77"/>
        <vehicle id="3_4" eclass="HBEFA3/PC_G_EU4" CO2="2705.99" CO="156.01" HC="0.77" NOx="1.23" PMx="0.06" fuel="1.16" electricity="0.00" noise="60.57" route="routeright" type="3" waiting="0.00" lane="right_0" pos="260.87" speed="0.60" angle="90.00" x="863.65" y="136.47"/>
        <vehicle id="4_0" eclass="HBEFA3/PC_G_EU4" CO2="2658.64" CO="156.12" HC="0.77" NOx="1.21" PMx="0.06" fuel="1.14" electricity="0.00" noise="59.33" route="routeright" type="4" waiting="0.00" lane="right_1" pos="257.28" speed="0.54" angle="90.00" x="860.13" y="139.77"/>
        <vehicle id="4_1" eclass="HBEFA3/PC_G_EU4" CO2="2693.50" CO="157.29" HC="0.78" NOx="1.22" PMx="0.06" fuel="1.16" electricity="0.00" noise="60.53" route="routeright" type="4" waiting="0.00" lane="right_0" pos="383.02" speed="0.51" angle="90.00" x="983.36" y="136.47"/>
        <vehicle id="4_2" eclass="HBEFA3/PC_G_EU4" CO2="2706.10" CO="156.00" HC="0.77" NOx="1.23" PMx="0.06" fuel="1.16" electricity="0.00" noise="60.57" route="routeright" type="4" waiting="0.00" lane="right_1" pos="375.67" speed="0.60" angle="90.00" x="976.16" y="139.77"/>
        <vehicle id="4_3" eclass="HBEFA3/PC_G_EU4" CO2="2656.67" CO="155.99" HC="0.77" NOx="1.20" PMx="0.06" fuel="1.14" electricity="0.00" noise="59.26" route="routediverge" type="4" waiting="0.00" lane="diverge_0" pos="2.05" speed="0.54" angle="136.58" x="607.78" y="131.31"/>
        <vehicle id="4_4" eclass="HBEFA3/PC_G_EU4" CO2="2698.05" CO="156.82" HC="0.78" NOx="1.22" PMx="0.06" fuel="1.16" electricity="0.00" noise="60.54" route="routediverge" type="4" waiting="0.00" lane="diverge_0" pos="133.02" speed="0.54" angle="135.00" x="695.43" y="43.66"/>
    </timestep>
    <timestep time="1.00">
        <vehicle id="1_0" eclass="HBEFA3/PC_G_EU4" CO2="2716.01" CO="155.00" HC="0.77" NOx="1.23" PMx="0.06" fuel="1.17" electricity="0.00" noise="60.59" route="routemerge" type="1" waiting="0.00" lane="merge_0" pos="9.83" speed="0.67" angle="45.00" x="336.67" y="75.75"/>