<?xml version="1.0" encoding="UTF-8"?>

<!-- generated on Mon Nov 19 21:01:15 2018 by SUMO gui Version b'v0_31_0-812-g1d4338ab80'
<?xml version="1.0" encoding="UTF-8"?>

<configuration xmlns:xsi="http://www.w3.org/2001/XMLSchema-instance" xsi:noNamespaceSchemaLocation="http://sumo.dlr.de/xsd/sumoConfiguration.xsd">

    <input>
        <net-file value="/Users/barryfan/flow/flow/scenarios/debug/cfg/merge-baseline_20181119-2101141542690074.811723.net.xml"/>
        <route-files value="/Users/barryfan/flow/flow/scenarios/debug/cfg/merge-baseline_20181119-2101141542690074.811723.rou.xml"/>
        <additional-files value="/Users/barryfan/flow/flow/scenarios/debug/cfg/merge-baseline_20181119-2101141542690074.811723.add.xml"/>
    </input>

    <output>
        <emission-output value="./data/merge-baseline_20181119-2101141542690074.811723-emission.xml"/>
    </output>

    <time>
        <begin value="0"/>
        <step-length value="0.2"/>
    </time>

    <processing>
        <lateral-resolution value="0.2"/>
        <time-to-teleport value="-1"/>
    </processing>

    <report>
        <no-step-log value="true"/>
    </report>

    <traci_server>
        <remote-port value="63424"/>
    </traci_server>

    <gui_only>
        <gui-settings-file value="/Users/barryfan/flow/flow/scenarios/debug/cfg/merge-baseline_20181119-2101141542690074.811723.gui.cfg"/>
        <tracker-interval value="0.2"/>
    </gui_only>

</configuration>
-->

<emission-export xmlns:xsi="http://www.w3.org/2001/XMLSchema-instance" xsi:noNamespaceSchemaLocation="http://sumo.dlr.de/xsd/emission_file.xsd">
    <timestep time="0.00">
        <vehicle id="1_0" eclass="HBEFA3/PC_G_EU4" CO2="2624.72" CO="164.78" HC="0.81" NOx="1.20" PMx="0.07" fuel="1.13" electricity="0.00" noise="55.94" route="routeinflow_merge" type="1" waiting="0.00" lane="inflow_merge_0" pos="12.72" speed="0.00" angle="45.00" x="268.74" y="7.82"/>
        <vehicle id="1_1" eclass="HBEFA3/PC_G_EU4" CO2="2624.72" CO="164.78" HC="0.81" NOx="1.20" PMx="0.07" fuel="1.13" electricity="0.00" noise="55.94" route="routecenter" type="1" waiting="0.00" lane="center_0" pos="21.77" speed="0.00" angle="90.00" x="421.42" y="136.47"/>
        <vehicle id="1_2" eclass="HBEFA3/PC_G_EU4" CO2="2624.72" CO="164.78" HC="0.81" NOx="1.20" PMx="0.07" fuel="1.13" electricity="0.00" noise="55.94" route="routecenter" type="1" waiting="0.00" lane="center_1" pos="25.06" speed="0.00" angle="90.00" x="424.72" y="139.77"/>
        <vehicle id="1_3" eclass="HBEFA3/PC_G_EU4" CO2="2624.72" CO="164.78" HC="0.81" NOx="1.20" PMx="0.07" fuel="1.13" electricity="0.00" noise="55.94" route="routecenter" type="1" waiting="0.00" lane="center_0" pos="151.99" speed="0.00" angle="90.00" x="552.22" y="136.47"/>
        <vehicle id="1_4" eclass="HBEFA3/PC_G_EU4" CO2="2624.72" CO="164.78" HC="0.81" NOx="1.20" PMx="0.07" fuel="1.13" electricity="0.00" noise="55.94" route="routecenter" type="1" waiting="0.00" lane="center_1" pos="141.70" speed="0.00" angle="90.00" x="541.89" y="139.77"/>
        <vehicle id="2_0" eclass="HBEFA3/PC_G_EU4" CO2="2624.72" CO="164.78" HC="0.81" NOx="1.20" PMx="0.07" fuel="1.13" electricity="0.00" noise="55.94" route="routeinflow_highway" type="2" waiting="0.00" lane="inflow_highway_0" pos="60.23" speed="0.00" angle="90.00" x="60.23" y="136.47"/>
        <vehicle id="2_1" eclass="HBEFA3/PC_G_EU4" CO2="2624.72" CO="164.78" HC="0.81" NOx="1.20" PMx="0.07" fuel="1.13" electricity="0.00" noise="55.94" route="routeinflow_highway" type="2" waiting="0.00" lane="inflow_highway_1" pos="67.00" speed="0.00" angle="90.00" x="67.00" y="139.77"/>
        <vehicle id="2_2" eclass="HBEFA3/PC_G_EU4" CO2="2624.72" CO="164.78" HC="0.81" NOx="1.20" PMx="0.07" fuel="1.13" electricity="0.00" noise="55.94" route="routeleft" type="2" waiting="0.00" lane="left_0" pos="84.86" speed="0.00" angle="90.00" x="182.61" y="136.47"/>
        <vehicle id="2_3" eclass="HBEFA3/PC_G_EU4" CO2="2624.72" CO="164.78" HC="0.81" NOx="1.20" PMx="0.07" fuel="1.13" electricity="0.00" noise="55.94" route="routeleft" type="2" waiting="0.00" lane="left_1" pos="86.27" speed="0.00" angle="90.00" x="183.97" y="139.77"/>
        <vehicle id="2_4" eclass="HBEFA3/PC_G_EU4" CO2="2624.72" CO="164.78" HC="0.81" NOx="1.20" PMx="0.07" fuel="1.13" electricity="0.00" noise="55.94" route="routeleft" type="2" waiting="0.00" lane="left_0" pos="207.42" speed="0.00" angle="90.00" x="301.90" y="136.47"/>
        <vehicle id="3_0" eclass="HBEFA3/PC_G_EU4" CO2="2624.72" CO="164.78" HC="0.81" NOx="1.20" PMx="0.07" fuel="1.13" electricity="0.00" noise="55.94" route="routeleft" type="3" waiting="0.00" lane="left_1" pos="208.08" speed="0.00" angle="90.00" x="302.54" y="139.77"/>
        <vehicle id="3_1" eclass="HBEFA3/PC_G_EU4" CO2="2624.72" CO="164.78" HC="0.81" NOx="1.20" PMx="0.07" fuel="1.13" electricity="0.00" noise="55.94" route="routediverge" type="3" waiting="0.00" lane="diverge_0" pos="20.08" speed="0.00" angle="135.00" x="619.85" y="119.24"/>
        <vehicle id="3_2" eclass="HBEFA3/PC_G_EU4" CO2="2624.72" CO="164.78" HC="0.81" NOx="1.20" PMx="0.07" fuel="1.13" electricity="0.00" noise="55.94" route="routediverge" type="3" waiting="0.00" lane="diverge_0" pos="136.36" speed="0.00" angle="135.00" x="697.66" y="41.42"/>
        <vehicle id="3_3" eclass="HBEFA3/PC_G_EU4" CO2="2624.72" CO="164.78" HC="0.81" NOx="1.20" PMx="0.07" fuel="1.13" electricity="0.00" noise="55.94" route="routemerge" type="3" waiting="0.00" lane="merge_0" pos="60.50" speed="0.00" angle="45.00" x="368.65" y="107.74"/>
        <vehicle id="3_4" eclass="HBEFA3/PC_G_EU4" CO2="2624.72" CO="164.78" HC="0.81" NOx="1.20" PMx="0.07" fuel="1.13" electricity="0.00" noise="55.94" route="routeright" type="3" waiting="0.00" lane="right_0" pos="72.83" speed="0.00" angle="90.00" x="679.36" y="136.47"/>
        <vehicle id="4_0" eclass="HBEFA3/PC_G_EU4" CO2="2624.72" CO="164.78" HC="0.81" NOx="1.20" PMx="0.07" fuel="1.13" electricity="0.00" noise="55.94" route="routeright" type="4" waiting="0.00" lane="right_1" pos="83.17" speed="0.00" angle="90.00" x="689.49" y="139.77"/>
        <vehicle id="4_1" eclass="HBEFA3/PC_G_EU4" CO2="2624.72" CO="164.78" HC="0.81" NOx="1.20" PMx="0.07" fuel="1.13" electricity="0.00" noise="55.94" route="routeright" type="4" waiting="0.00" lane="right_0" pos="204.72" speed="0.00" angle="90.00" x="808.61" y="136.47"/>
        <vehicle id="4_2" eclass="HBEFA3/PC_G_EU4" CO2="2624.72" CO="164.78" HC="0.81" NOx="1.20" PMx="0.07" fuel="1.13" electricity="0.00" noise="55.94" route="routeright" type="4" waiting="0.00" lane="right_1" pos="203.83" speed="0.00" angle="90.00" x="807.75" y="139.77"/>
        <vehicle id="4_3" eclass="HBEFA3/PC_G_EU4" CO2="2624.72" CO="164.78" HC="0.81" NOx="1.20" PMx="0.07" fuel="1.13" electricity="0.00" noise="55.94" route="routeright" type="4" waiting="0.00" lane="right_0" pos="326.43" speed="0.00" angle="90.00" x="927.90" y="136.47"/>
        <vehicle id="4_4" eclass="HBEFA3/PC_G_EU4" CO2="2624.72" CO="164.78" HC="0.81" NOx="1.20" PMx="0.07" fuel="1.13" electricity="0.00" noise="55.94" route="routeright" type="4" waiting="0.00" lane="right_1" pos="328.40" speed="0.00" angle="90.00" x="929.83" y="139.77"/>
    </timestep>
    <timestep time="0.20">
        <vehicle id="1_0" eclass="HBEFA3/PC_G_EU4" CO2="2624.72" CO="164.78" HC="0.81" NOx="1.20" PMx="0.07" fuel="1.13" electricity="0.00" noise="55.94" route="routeinflow_merge" type="1" waiting="0.00" lane="inflow_merge_0" pos="12.72" speed="0.00" angle="45.00" x="268.74" y="7.82"/>
        <vehicle id="1_1" eclass="HBEFA3/PC_G_EU4" CO2="2624.72" CO="164.78" HC="0.81" NOx="1.20" PMx="0.07" fuel="1.13" electricity="0.00" noise="55.94" route="routecenter" type="1" waiting="0.00" lane="center_0" pos="21.77" speed="0.00" angle="90.00" x="421.42" y="136.47"/>
        <vehicle id="1_2" eclass="HBEFA3/PC_G_EU4" CO2="2624.72" CO="164.78" HC="0.81" NOx="1.20" PMx="0.07" fuel="1.13" electricity="0.00" noise="55.94" route="routecenter" type="1" waiting="0.00" lane="center_1" pos="25.06" speed="0.00" angle="90.00" x="424.72" y="139.77"/>
        <vehicle id="1_3" eclass="HBEFA3/PC_G_EU4" CO2="2624.72" CO="164.78" HC="0.81" NOx="1.20" PMx="0.07" fuel="1.13" electricity="0.00" noise="55.94" route="routecenter" type="1" waiting="0.00" lane="center_0" pos="151.99" speed="0.00" angle="90.00" x="552.22" y="136.47"/>
        <vehicle id="1_4" eclass="HBEFA3/PC_G_EU4" CO2="2624.72" CO="164.78" HC="0.81" NOx="1.20" PMx="0.07" fuel="1.13" electricity="0.00" noise="55.94" route="routecenter" type="1" waiting="0.00" lane="center_1" pos="141.70" speed="0.00" angle="90.00" x="541.89" y="139.77"/>
        <vehicle id="2_0" eclass="HBEFA3/PC_G_EU4" CO2="2624.72" CO="164.78" HC="0.81" NOx="1.20" PMx="0.07" fuel="1.13" electricity="0.00" noise="55.94" route="routeinflow_highway" type="2" waiting="0.00" lane="inflow_highway_0" pos="60.23" speed="0.00" angle="90.00" x="60.23" y="136.47"/>
        <vehicle id="2_1" eclass="HBEFA3/PC_G_EU4" CO2="2624.72" CO="164.78" HC="0.81" NOx="1.20" PMx="0.07" fuel="1.13" electricity="0.00" noise="55.94" route="routeinflow_highway" type="2" waiting="0.00" lane="inflow_highway_1" pos="67.00" speed="0.00" angle="90.00" x="67.00" y="139.77"/>
        <vehicle id="2_2" eclass="HBEFA3/PC_G_EU4" CO2="2624.72" CO="164.78" HC="0.81" NOx="1.20" PMx="0.07" fuel="1.13" electricity="0.00" noise="55.94" route="routeleft" type="2" waiting="0.00" lane="left_0" pos="84.86" speed="0.00" angle="90.00" x="182.61" y="136.47"/>
        <vehicle id="2_3" eclass="HBEFA3/PC_G_EU4" CO2="2624.72" CO="164.78" HC="0.81" NOx="1.20" PMx="0.07" fuel="1.13" electricity="0.00" noise="55.94" route="routeleft" type="2" waiting="0.00" lane="left_1" pos="86.27" speed="0.00" angle="90.00" x="183.97" y="139.77"/>
        <vehicle id="2_4" eclass="HBEFA3/PC_G_EU4" CO2="2624.72" CO="164.78" HC="0.81" NOx="1.20" PMx="0.07" fuel="1.13" electricity="0.00" noise="55.94" route="routeleft" type="2" waiting="0.00" lane="left_0" pos="207.42" speed="0.00" angle="90.00" x="301.90" y="136.47"/>
        <vehicle id="3_0" eclass="HBEFA3/PC_G_EU4" CO2="2624.72" CO="164.78" HC="0.81" NOx="1.20" PMx="0.07" fuel="1.13" electricity="0.00" noise="55.94" route="routeleft" type="3" waiting="0.00" lane="left_1" pos="208.08" speed="0.00" angle="90.00" x="302.54" y="139.77"/>
        <vehicle id="3_1" eclass="HBEFA3/PC_G_EU4" CO2="2624.72" CO="164.78" HC="0.81" NOx="1.20" PMx="0.07" fuel="1.13" electricity="0.00" noise="55.94" route="routediverge" type="3" waiting="0.00" lane="diverge_0" pos="20.08" speed="0.00" angle="135.00" x="619.85" y="119.24"/>
        <vehicle id="3_2" eclass="HBEFA3/PC_G_EU4" CO2="2624.72" CO="164.78" HC="0.81" NOx="1.20" PMx="0.07" fuel="1.13" electricity="0.00" noise="55.94" route="routediverge" type="3" waiting="0.00" lane="diverge_0" pos="136.36" speed="0.00" angle="135.00" x="697.66" y="41.42"/>
        <vehicle id="3_3" eclass="HBEFA3/PC_G_EU4" CO2="2624.72" CO="164.78" HC="0.81" NOx="1.20" PMx="0.07" fuel="1.13" electricity="0.00" noise="55.94" route="routemerge" type="3" waiting="0.00" lane="merge_0" pos="60.50" speed="0.00" angle="45.00" x="368.65" y="107.74"/>
        <vehicle id="3_4" eclass="HBEFA3/PC_G_EU4" CO2="2624.72" CO="164.78" HC="0.81" NOx="1.20" PMx="0.07" fuel="1.13" electricity="0.00" noise="55.94" route="routeright" type="3" waiting="0.00" lane="right_0" pos="72.83" speed="0.00" angle="90.00" x="679.36" y="136.47"/>
        <vehicle id="4_0" eclass="HBEFA3/PC_G_EU4" CO2="2624.72" CO="164.78" HC="0.81" NOx="1.20" PMx="0.07" fuel="1.13" electricity="0.00" noise="55.94" route="routeright" type="4" waiting="0.00" lane="right_1" pos="83.17" speed="0.00" angle="90.00" x="689.49" y="139.77"/>
        <vehicle id="4_1" eclass="HBEFA3/PC_G_EU4" CO2="2624.72" CO="164.78" HC="0.81" NOx="1.20" PMx="0.07" fuel="1.13" electricity="0.00" noise="55.94" route="routeright" type="4" waiting="0.00" lane="right_0" pos="204.72" speed="0.00" angle="90.00" x="808.61" y="136.47"/>
        <vehicle id="4_2" eclass="HBEFA3/PC_G_EU4" CO2="2624.72" CO="164.78" HC="0.81" NOx="1.20" PMx="0.07" fuel="1.13" electricity="0.00" noise="55.94" route="routeright" type="4" waiting="0.00" lane="right_1" pos="203.83" speed="0.00" angle="90.00" x="807.75" y="139.77"/>
        <vehicle id="4_3" eclass="HBEFA3/PC_G_EU4" CO2="2624.72" CO="164.78" HC="0.81" NOx="1.20" PMx="0.07" fuel="1.13" electricity="0.00" noise="55.94" route="routeright" type="4" waiting="0.00" lane="right_0" pos="326.43" speed="0.00" angle="90.00" x="927.90" y="136.47"/>
        <vehicle id="4_4" eclass="HBEFA3/PC_G_EU4" CO2="2624.72" CO="164.78" HC="0.81" NOx="1.20" PMx="0.07" fuel="1.13" electricity="0.00" noise="55.94" route="routeright" type="4" waiting="0.00" lane="right_1" pos="328.40" speed="0.00" angle="90.00" x="929.83" y="139.77"/>
    </timestep>
    <timestep time="0.40">
        <vehicle id="1_0" eclass="HBEFA3/PC_G_EU4" CO2="2651.22" CO="161.80" HC="0.80" NOx="1.21" PMx="0.07" fuel="1.14" electricity="0.00" noise="60.41" route="routeinflow_merge" type="1" waiting="0.00" lane="inflow_merge_0" pos="12.76" speed="0.20" angle="45.00" x="268.77" y="7.85"/>
        <vehicle id="1_1" eclass="HBEFA3/PC_G_EU4" CO2="2648.68" CO="161.87" HC="0.80" NOx="1.21" PMx="0.07" fuel="1.14" electricity="0.00" noise="60.27" route="routecenter" type="1" waiting="0.00" lane="center_0" pos="21.81" speed="0.19" angle="90.00" x="421.46" y="136.47"/>
        <vehicle id="1_2" eclass="HBEFA3/PC_G_EU4" CO2="2632.46" CO="162.46" HC="0.80" NOx="1.20" PMx="0.07" fuel="1.13" electricity="0.00" noise="59.09" route="routecenter" type="1" waiting="0.00" lane="center_1" pos="25.08" speed="0.14" angle="90.00" x="424.75" y="139.77"/>
        <vehicle id="1_3" eclass="HBEFA3/PC_G_EU4" CO2="2651.22" CO="161.80" HC="0.80" NOx="1.21" PMx="0.07" fuel="1.14" electricity="0.00" noise="60.41" route="routecenter" type="1" waiting="0.00" lane="center_0" pos="152.03" speed="0.20" angle="90.00" x="552.26" y="136.47"/>
        <vehicle id="1_4" eclass="HBEFA3/PC_G_EU4" CO2="2645.10" CO="161.97" HC="0.80" NOx="1.21" PMx="0.07" fuel="1.14" electricity="0.00" noise="60.05" route="routecenter" type="1" waiting="0.00" lane="center_1" pos="141.74" speed="0.18" angle="90.00" x="541.92" y="139.77"/>
        <vehicle id="2_0" eclass="HBEFA3/PC_G_EU4" CO2="2644.33" CO="161.99" HC="0.80" NOx="1.21" PMx="0.07" fuel="1.14" electricity="0.00" noise="60.00" route="!2_0!var#1" type="2" waiting="0.00" lane="inflow_highway_0" pos="60.27" speed="0.18" angle="90.00" x="60.27" y="136.47"/>
        <vehicle id="2_1" eclass="HBEFA3/PC_G_EU4" CO2="2643.08" CO="162.03" HC="0.80" NOx="1.21" PMx="0.07" fuel="1.14" electricity="0.00" noise="59.92" route="!2_1!var#1" type="2" waiting="0.00" lane="inflow_highway_1" pos="67.04" speed="0.18" angle="90.00" x="67.04" y="139.77"/>
        <vehicle id="2_2" eclass="HBEFA3/PC_G_EU4" CO2="2633.81" CO="162.39" HC="0.80" NOx="1.20" PMx="0.07" fuel="1.13" electricity="0.00" noise="59.21" route="routeleft" type="2" waiting="0.00" lane="left_0" pos="84.89" speed="0.15" angle="90.00" x="182.64" y="136.47"/>
        <vehicle id="2_3" eclass="HBEFA3/PC_G_EU4" CO2="2651.22" CO="161.80" HC="0.80" NOx="1.21" PMx="0.07" fuel="1.14" electricity="0.00" noise="60.41" route="routeleft" type="2" waiting="0.00" lane="left_1" pos="86.31" speed="0.20" angle="90.00" x="184.01" y="139.77"/>
        <vehicle id="2_4" eclass="HBEFA3/PC_G_EU4" CO2="2651.22" CO="161.80" HC="0.80" NOx="1.21" PMx="0.07" fuel="1.14" electricity="0.00" noise="60.41" route="routeleft" type="2" waiting="0.00" lane="left_0" pos="207.46" speed="0.20" angle="90.00" x="301.94" y="136.47"/>
        <vehicle id="3_0" eclass="HBEFA3/PC_G_EU4" CO2="2651.22" CO="161.80" HC="0.80" NOx="1.21" PMx="0.07" fuel="1.14" electricity="0.00" noise="60.41" route="routeleft" type="3" waiting="0.00" lane="left_1" pos="208.12" speed="0.20" angle="90.00" x="302.58" y="139.77"/>
        <vehicle id="3_1" eclass="HBEFA3/PC_G_EU4" CO2="2641.19" CO="162.09" HC="0.80" NOx="1.21" PMx="0.07" fuel="1.14" electricity="0.00" noise="59.79" route="routediverge" type="3" waiting="0.00" lane="diverge_0" pos="20.11" speed="0.17" angle="135.00" x="619.87" y="119.22"/>
        <vehicle id="3_2" eclass="HBEFA3/PC_G_EU4" CO2="2651.22" CO="161.80" HC="0.80" NOx="1.21" PMx="0.07" fuel="1.14" electricity="0.00" noise="60.41" route="routediverge" type="3" waiting="0.00" lane="diverge_0" pos="136.40" speed="0.20" angle="135.00" x="697.69" y="41.40"/>
        <vehicle id="3_3" eclass="HBEFA3/PC_G_EU4" CO2="2638.74" CO="162.18" HC="0.80" NOx="1.21" PMx="0.07" fuel="1.13" electricity="0.00" noise="59.61" route="routemerge" type="3" waiting="0.00" lane="merge_0" pos="60.53" speed="0.16" angle="45.00" x="368.67" y="107.76"/>
        <vehicle id="3_4" eclass="HBEFA3/PC_G_EU4" CO2="2651.22" CO="161.80" HC="0.80" NOx="1.21" PMx="0.07" fuel="1.14" electricity="0.00" noise="60.41" route="routeright" type="3" waiting="0.00" lane="right_0" pos="72.87" speed="0.20" angle="90.00" x="679.40" y="136.47"/>
        <vehicle id="4_0" eclass="HBEFA3/PC_G_EU4" CO2="2651.22" CO="161.80" HC="0.80" NOx="1.21" PMx="0.07" fuel="1.14" electricity="0.00" noise="60.41" route="routeright" type="4" waiting="0.00" lane="right_1" pos="83.21" speed="0.20" angle="90.00" x="689.53" y="139.77"/>
        <vehicle id="4_1" eclass="HBEFA3/PC_G_EU4" CO2="2648.70" CO="161.87" HC="0.80" NOx="1.21" PMx="0.07" fuel="1.14" electricity="0.00" noise="60.27" route="routeright" type="4" waiting="0.00" lane="right_0" pos="204.75" speed="0.19" angle="90.00" x="808.65" y="136.47"/>
        <vehicle id="4_2" eclass="HBEFA3/PC_G_EU4" CO2="2651.22" CO="161.80" HC="0.80" NOx="1.21" PMx="0.07" fuel="1.14" electricity="0.00" noise="60.41" route="routeright" type="4" waiting="0.00" lane="right_1" pos="203.87" speed="0.20" angle="90.00" x="807.78" y="139.77"/>
        <vehicle id="4_3" eclass="HBEFA3/PC_G_EU4" CO2="2632.53" CO="162.45" HC="0.80" NOx="1.20" PMx="0.07" fuel="1.13" electricity="0.00" noise="59.10" route="routeright" type="4" waiting="0.00" lane="right_0" pos="326.46" speed="0.14" angle="90.00" x="927.92" y="136.47"/>
        <vehicle id="4_4" eclass="HBEFA3/PC_G_EU4" CO2="2651.22" CO="161.80" HC="0.80" NOx="1.21" PMx="0.07" fuel="1.14" electricity="0.00" noise="60.41" route="routeright" type="4" waiting="0.00" lane="right_1" pos="328.44" speed="0.20" angle="90.00" x="929.87" y="139.77"/>
    </timestep>
    <timestep time="0.60">
        <vehicle id="1_0" eclass="HBEFA3/PC_G_EU4" CO2="2678.34" CO="158.88" HC="0.79" NOx="1.22" PMx="0.07" fuel="1.15" electricity="0.00" noise="60.49" route="routeinflow_merge" type="1" waiting="0.00" lane="inflow_merge_0" pos="12.84" speed="0.40" angle="45.00" x="268.83" y="7.91"/>
        <vehicle id="1_1" eclass="HBEFA3/PC_G_EU4" CO2="2677.44" CO="158.97" HC="0.79" NOx="1.22" PMx="0.07" fuel="1.15" electricity="0.00" noise="60.49" route="routecenter" type="1" waiting="0.00" lane="center_0" pos="21.89" speed="0.39" angle="90.00" x="421.54" y="136.47"/>
        <vehicle id="1_2" eclass="HBEFA3/PC_G_EU4" CO2="2670.26" CO="159.74" HC="0.79" NOx="1.22" PMx="0.07" fuel="1.15" electricity="0.00" noise="60.47" route="routecenter" type="1" waiting="0.00" lane="center_1" pos="25.15" speed="0.34" angle="90.00" x="424.82" y="139.77"/>
        <vehicle id="1_3" eclass="HBEFA3/PC_G_EU4" CO2="2670.04" CO="158.93" HC="0.79" NOx="1.22" PMx="0.06" fuel="1.15" electricity="0.00" noise="60.20" route="routecenter" type="1" waiting="0.00" lane="center_0" pos="152.10" speed="0.39" angle="90.00" x="552.34" y="136.47"/>
        <vehicle id="1_4" eclass="HBEFA3/PC_G_EU4" CO2="2656.90" CO="159.28" HC="0.79" NOx="1.21" PMx="0.06" fuel="1.14" electricity="0.00" noise="59.76" route="routecenter" type="1" waiting="0.00" lane="center_1" pos="141.81" speed="0.35" angle="90.00" x="541.99" y="139.77"/>
        <vehicle id="2_0" eclass="HBEFA3/PC_G_EU4" CO2="2633.58" CO="159.67" HC="0.79" NOx="1.20" PMx="0.06" fuel="1.13" electricity="0.00" noise="58.70" route="!2_0!var#1" type="2" waiting="0.00" lane="inflow_highway_0" pos="60.33" speed="0.30" angle="90.00" x="60.33" y="136.47"/>
        <vehicle id="2_1" eclass="HBEFA3/PC_G_EU4" CO2="2675.29" CO="159.20" HC="0.79" NOx="1.22" PMx="0.07" fuel="1.15" electricity="0.00" noise="60.48" route="!2_1!var#1" type="2" waiting="0.00" lane="inflow_highway_1" pos="67.11" speed="0.38" angle="90.00" x="67.11" y="139.77"/>
        <vehicle id="2_2" eclass="HBEFA3/PC_G_EU4" CO2="2636.91" CO="160.15" HC="0.79" NOx="1.20" PMx="0.06" fuel="1.13" electricity="0.00" noise="58.94" route="routeleft" type="2" waiting="0.00" lane="left_0" pos="84.95" speed="0.28" angle="90.00" x="182.69" y="136.47"/>
        <vehicle id="2_3" eclass="HBEFA3/PC_G_EU4" CO2="2675.03" CO="158.90" HC="0.79" NOx="1.22" PMx="0.07" fuel="1.15" electricity="0.00" noise="60.38" route="routeleft" type="2" waiting="0.00" lane="left_1" pos="86.39" speed="0.39" angle="90.00" x="184.09" y="139.77"/>
        <vehicle id="2_4" eclass="HBEFA3/PC_G_EU4" CO2="2643.12" CO="159.21" HC="0.79" NOx="1.20" PMx="0.06" fuel="1.14" electricity="0.00" noise="59.13" route="routeleft" type="2" waiting="0.00" lane="left_0" pos="207.52" speed="0.34" angle="90.00" x="302.00" y="136.47"/>
        <vehicle id="3_0" eclass="HBEFA3/PC_G_EU4" CO2="2678.34" CO="158.88" HC="0.79" NOx="1.22" PMx="0.07" fuel="1.15" electricity="0.00" noise="60.49" route="routeleft" type="3" waiting="0.00" lane="left_1" pos="208.20" speed="0.40" angle="90.00" x="302.66" y="139.77"/>
        <vehicle id="3_1" eclass="HBEFA3/PC_G_EU4" CO2="2674.51" CO="159.29" HC="0.79" NOx="1.22" PMx="0.07" fuel="1.15" electricity="0.00" noise="60.48" route="routediverge" type="3" waiting="0.00" lane="diverge_0" pos="20.19" speed="0.37" angle="135.00" x="619.92" y="119.17"/>
        <vehicle id="3_2" eclass="HBEFA3/PC_G_EU4" CO2="2649.52" CO="159.13" HC="0.79" NOx="1.21" PMx="0.06" fuel="1.14" electricity="0.00" noise="59.41" route="routediverge" type="3" waiting="0.00" lane="diverge_0" pos="136.47" speed="0.35" angle="135.00" x="697.73" y="41.35"/>
        <vehicle id="3_3" eclass="HBEFA3/PC_G_EU4" CO2="2665.83" CO="159.47" HC="0.79" NOx="1.21" PMx="0.07" fuel="1.15" electricity="0.00" noise="60.19" route="routemerge" type="3" waiting="0.00" lane="merge_0" pos="60.60" speed="0.35" angle="45.00" x="368.72" y="107.80"/>
        <vehicle id="3_4" eclass="HBEFA3/PC_G_EU4" CO2="2678.34" CO="158.88" HC="0.79" NOx="1.22" PMx="0.07" fuel="1.15" electricity="0.00" noise="60.49" route="routeright" type="3" waiting="0.00" lane="right_0" pos="72.95" speed="0.40" angle="90.00" x="679.48" y="136.47"/>
        <vehicle id="4_0" eclass="HBEFA3/PC_G_EU4" CO2="2678.34" CO="158.88" HC="0.79" NOx="1.22" PMx="0.07" fuel="1.15" electricity="0.00" noise="60.49" route="routeright" type="4" waiting="0.00" lane="right_1" pos="83.29" speed="0.40" angle="90.00" x="689.61" y="139.77"/>
        <vehicle id="4_1" eclass="HBEFA3/PC_G_EU4" CO2="2677.45" CO="158.97" HC="0.79" NOx="1.22" PMx="0.07" fuel="1.15" electricity="0.00" noise="60.49" route="routeright" type="4" waiting="0.00" lane="right_0" pos="204.83" speed="0.39" angle="90.00" x="808.73" y="136.47"/>
        <vehicle id="4_2" eclass="HBEFA3/PC_G_EU4" CO2="2661.47" CO="159.00" HC="0.79" NOx="1.21" PMx="0.06" fuel="1.14" electricity="0.00" noise="59.88" route="routeright" type="4" waiting="0.00" lane="right_1" pos="203.95" speed="0.37" angle="90.00" x="807.86" y="139.77"/>
        <vehicle id="4_3" eclass="HBEFA3/PC_G_EU4" CO2="2670.30" CO="159.73" HC="0.79" NOx="1.22" PMx="0.07" fuel="1.15" electricity="0.00" noise="60.47" route="routeright" type="4" waiting="0.00" lane="right_0" pos="326.53" speed="0.34" angle="90.00" x="927.99" y="136.47"/>
        <vehicle id="4_4" eclass="HBEFA3/PC_G_EU4" CO2="2678.34" CO="158.88" HC="0.79" NOx="1.22" PMx="0.07" fuel="1.15" electricity="0.00" noise="60.49" route="routeright" type="4" waiting="0.00" lane="right_1" pos="328.52" speed="0.40" angle="90.00" x="929.94" y="139.77"/>
    </timestep>
    <timestep time="0.80">
        <vehicle id="1_0" eclass="HBEFA3/PC_G_EU4" CO2="2675.16" CO="155.97" HC="0.77" NOx="1.21" PMx="0.06" fuel="1.15" electricity="0.00" noise="59.78" route="routeinflow_merge" type="1" waiting="0.00" lane="inflow_merge_0" pos="12.95" speed="0.56" angle="45.00" x="268.91" y="7.99"/>
        <vehicle id="1_1" eclass="HBEFA3/PC_G_EU4" CO2="2682.21" CO="156.07" HC="0.77" NOx="1.22" PMx="0.06" fuel="1.15" electricity="0.00" noise="59.98" route="routecenter" type="1" waiting="0.00" lane="center_0" pos="22.00" speed="0.57" angle="90.00" x="421.65" y="136.47"/>
        <vehicle id="1_2" eclass="HBEFA3/PC_G_EU4" CO2="2694.92" CO="156.84" HC="0.78" NOx="1.22" PMx="0.06" fuel="1.16" electricity="0.00" noise="60.47" route="routecenter" type="1" waiting="0.00" lane="center_1" pos="25.26" speed="0.54" angle="90.00" x="424.92" y="139.77"/>
        <vehicle id="1_3" eclass="HBEFA3/PC_G_EU4" CO2="2704.28" CO="156.18" HC="0.77" NOx="1.23" PMx="0.06" fuel="1.16" electricity="0.00" noise="60.56" route="routecenter" type="1" waiting="0.00" lane="center_0" pos="152.22" speed="0.59" angle="90.00" x="552.46" y="136.47"/>
        <vehicle id="1_4" eclass="HBEFA3/PC_G_EU4" CO2="2699.28" CO="156.70" HC="0.78" NOx="1.22" PMx="0.06" fuel="1.16" electricity="0.00" noise="60.55" route="routecenter" type="1" waiting="0.00" lane="center_1" pos="141.92" speed="0.55" angle="90.00" x="542.10" y="139.77"/>
        <vehicle id="2_0" eclass="HBEFA3/PC_G_EU4" CO2="2691.32" CO="157.41" HC="0.78" NOx="1.22" PMx="0.06" fuel="1.16" electricity="0.00" noise="60.50" route="!2_0!var#1" type="2" waiting="0.00" lane="inflow_highway_0" pos="60.43" speed="0.50" angle="90.00" x="60.43" y="136.47"/>
        <vehicle id="2_1" eclass="HBEFA3/PC_G_EU4" CO2="2655.24" CO="156.34" HC="0.77" NOx="1.20" PMx="0.06" fuel="1.14" electricity="0.00" noise="59.25" route="!2_1!var#1" type="2" waiting="0.00" lane="inflow_highway_1" pos="67.22" speed="0.52" angle="90.00" x="67.22" y="139.77"/>
        <vehicle id="2_2" eclass="HBEFA3/PC_G_EU4" CO2="2687.51" CO="157.75" HC="0.78" NOx="1.22" PMx="0.06" fuel="1.16" electricity="0.00" noise="60.47" route="routeleft" type="2" waiting="0.00" lane="left_0" pos="85.04" speed="0.48" angle="90.00" x="182.78" y="136.47"/>
        <vehicle id="2_3" eclass="HBEFA3/PC_G_EU4" CO2="2672.35" CO="156.05" HC="0.77" NOx="1.21" PMx="0.06" fuel="1.15" electricity="0.00" noise="59.71" route="routeleft" type="2" waiting="0.00" lane="left_1" pos="86.50" speed="0.56" angle="90.00" x="184.20" y="139.77"/>
        <vehicle id="2_4" eclass="HBEFA3/PC_G_EU4" CO2="2691.23" CO="156.87" HC="0.78" NOx="1.22" PMx="0.06" fuel="1.16" electricity="0.00" noise="60.37" route="routeleft" type="2" waiting="0.00" lane="left_0" pos="207.63" speed="0.53" angle="90.00" x="302.11" y="136.47"/>
        <vehicle id="3_0" eclass="HBEFA3/PC_G_EU4" CO2="2706.10" CO="156.00" HC="0.77" NOx="1.23" PMx="0.06" fuel="1.16" electricity="0.00" noise="60.57" route="routeleft" type="3" waiting="0.00" lane="left_1" pos="208.32" speed="0.60" angle="90.00" x="302.78" y="139.77"/>
        <vehicle id="3_1" eclass="HBEFA3/PC_G_EU4" CO2="2684.12" CO="156.39" HC="0.77" NOx="1.22" PMx="0.06" fuel="1.15" electricity="0.00" noise="60.08" route="routediverge" type="3" waiting="0.00" lane="diverge_0" pos="20.30" speed="0.55" angle="135.00" x="619.99" y="119.10"/>
        <vehicle id="3_2" eclass="HBEFA3/PC_G_EU4" CO2="2699.32" CO="156.69" HC="0.78" NOx="1.22" PMx="0.06" fuel="1.16" electricity="0.00" noise="60.55" route="routediverge" type="3" waiting="0.00" lane="diverge_0" pos="136.58" speed="0.55" angle="135.00" x="697.81" y="41.28"/>
        <vehicle id="3_3" eclass="HBEFA3/PC_G_EU4" CO2="2699.27" CO="156.70" HC="0.78" NOx="1.22" PMx="0.06" fuel="1.16" electricity="0.00" noise="60.55" route="routemerge" type="3" waiting="0.00" lane="merge_0" pos="60.71" speed="0.55" angle="45.00" x="368.79" y="107.87"/>
        <vehicle id="3_4" eclass="HBEFA3/PC_G_EU4" CO2="2698.40" CO="155.98" HC="0.77" NOx="1.22" PMx="0.06" fuel="1.16" electricity="0.00" noise="60.38" route="routeright" type="3" waiting="0.00" lane="right_0" pos="73.07" speed="0.59" angle="90.00" x="679.59" y="136.47"/>
        <vehicle id="4_0" eclass="HBEFA3/PC_G_EU4" CO2="2706.10" CO="156.00" HC="0.77" NOx="1.23" PMx="0.06" fuel="1.16" electricity="0.00" noise="60.57" route="routeright" type="4" waiting="0.00" lane="right_1" pos="83.41" speed="0.60" angle="90.00" x="689.73" y="139.77"/>
        <vehicle id="4_1" eclass="HBEFA3/PC_G_EU4" CO2="2678.81" CO="156.07" HC="0.77" NOx="1.21" PMx="0.06" fuel="1.15" electricity="0.00" noise="59.89" route="routeright" type="4" waiting="0.00" lane="right_0" pos="204.95" speed="0.56" angle="90.00" x="808.84" y="136.47"/>
        <vehicle id="4_2" eclass="HBEFA3/PC_G_EU4" CO2="2628.16" CO="156.54" HC="0.77" NOx="1.19" PMx="0.06" fuel="1.13" electricity="0.00" noise="58.37" route="routeright" type="4" waiting="0.00" lane="right_1" pos="204.04" speed="0.48" angle="90.00" x="807.95" y="139.77"/>
        <vehicle id="4_3" eclass="HBEFA3/PC_G_EU4" CO2="2692.67" CO="156.84" HC="0.78" NOx="1.22" PMx="0.06" fuel="1.16" electricity="0.00" noise="60.40" route="routeright" type="4" waiting="0.00" lane="right_0" pos="326.63" speed="0.53" angle="90.00" x="928.10" y="136.47"/>
        <vehicle id="4_4" eclass="HBEFA3/PC_G_EU4" CO2="2706.10" CO="156.00" HC="0.77" NOx="1.23" PMx="0.06" fuel="1.16" electricity="0.00" noise="60.57" route="routeright" type="4" waiting="0.00" lane="right_1" pos="328.64" speed="0.60" angle="90.00" x="930.06" y="139.77"/>
    </timestep>
    <timestep time="1.00">
        <vehicle id="1_0" eclass="HBEFA3/PC_G_EU4" CO2="2729.42" CO="153.66" HC="0.76" NOx="1.23" PMx="0.06" fuel="1.17" electricity="0.00" noise="60.63" route="routeinflow_merge" type="1" waiting="0.00" lane="inflow_merge_0" pos="13.11" speed="0.76" angle="45.00" x="269.02" y="8.10"/>