<?xml version="1.0" encoding="UTF-8"?>

<!-- generated on Mon Nov 19 20:32:37 2018 by SUMO gui Version b'v0_31_0-812-g1d4338ab80'
<?xml version="1.0" encoding="UTF-8"?>

<configuration xmlns:xsi="http://www.w3.org/2001/XMLSchema-instance" xsi:noNamespaceSchemaLocation="http://sumo.dlr.de/xsd/sumoConfiguration.xsd">

    <input>
        <net-file value="/Users/barryfan/flow/flow/scenarios/debug/cfg/merge-baseline_20181119-2032361542688356.169687.net.xml"/>
        <route-files value="/Users/barryfan/flow/flow/scenarios/debug/cfg/merge-baseline_20181119-2032361542688356.169687.rou.xml"/>
        <additional-files value="/Users/barryfan/flow/flow/scenarios/debug/cfg/merge-baseline_20181119-2032361542688356.169687.add.xml"/>
    </input>

    <output>
        <emission-output value="./data/merge-baseline_20181119-2032361542688356.169687-emission.xml"/>
    </output>

    <time>
        <begin value="0"/>
        <step-length value="0.2"/>
    </time>

    <processing>
        <time-to-teleport value="-1"/>
    </processing>

    <report>
        <no-step-log value="true"/>
    </report>

    <traci_server>
        <remote-port value="63260"/>
    </traci_server>

    <gui_only>
        <gui-settings-file value="/Users/barryfan/flow/flow/scenarios/debug/cfg/merge-baseline_20181119-2032361542688356.169687.gui.cfg"/>
        <tracker-interval value="0.2"/>
    </gui_only>

</configuration>
-->

<emission-export xmlns:xsi="http://www.w3.org/2001/XMLSchema-instance" xsi:noNamespaceSchemaLocation="http://sumo.dlr.de/xsd/emission_file.xsd">
    <timestep time="0.00">
        <vehicle id="1_0" eclass="HBEFA3/PC_G_EU4" CO2="2624.72" CO="164.78" HC="0.81" NOx="1.20" PMx="0.07" fuel="1.13" electricity="0.00" noise="55.94" route="routeright" type="1" waiting="0.00" lane="right_0" pos="0.67" speed="0.00" angle="90.00" x="608.63" y="136.47"/>
        <vehicle id="1_1" eclass="HBEFA3/PC_G_EU4" CO2="2624.72" CO="164.78" HC="0.81" NOx="1.20" PMx="0.07" fuel="1.13" electricity="0.00" noise="55.94" route="routeright" type="1" waiting="0.00" lane="right_1" pos="11.89" speed="0.00" angle="90.00" x="619.63" y="139.77"/>
        <vehicle id="1_2" eclass="HBEFA3/PC_G_EU4" CO2="2624.72" CO="164.78" HC="0.81" NOx="1.20" PMx="0.07" fuel="1.13" electricity="0.00" noise="55.94" route="routeright" type="1" waiting="0.00" lane="right_0" pos="129.55" speed="0.00" angle="90.00" x="734.95" y="136.47"/>
        <vehicle id="1_3" eclass="HBEFA3/PC_G_EU4" CO2="2624.72" CO="164.78" HC="0.81" NOx="1.20" PMx="0.07" fuel="1.13" electricity="0.00" noise="55.94" route="routeright" type="1" waiting="0.00" lane="right_1" pos="117.41" speed="0.00" angle="90.00" x="723.04" y="139.77"/>
        <vehicle id="1_4" eclass="HBEFA3/PC_G_EU4" CO2="2624.72" CO="164.78" HC="0.81" NOx="1.20" PMx="0.07" fuel="1.13" electricity="0.00" noise="55.94" route="routeright" type="1" waiting="0.00" lane="right_0" pos="236.35" speed="0.00" angle="90.00" x="839.61" y="136.47"/>
        <vehicle id="2_0" eclass="HBEFA3/PC_G_EU4" CO2="2624.72" CO="164.78" HC="0.81" NOx="1.20" PMx="0.07" fuel="1.13" electricity="0.00" noise="55.94" route="routeright" type="2" waiting="0.00" lane="right_1" pos="245.91" speed="0.00" angle="90.00" x="848.99" y="139.77"/>
        <vehicle id="2_1" eclass="HBEFA3/PC_G_EU4" CO2="2624.72" CO="164.78" HC="0.81" NOx="1.20" PMx="0.07" fuel="1.13" electricity="0.00" noise="55.94" route="routeright" type="2" waiting="0.00" lane="right_0" pos="373.34" speed="0.00" angle="90.00" x="973.87" y="136.47"/>
        <vehicle id="2_2" eclass="HBEFA3/PC_G_EU4" CO2="2624.72" CO="164.78" HC="0.81" NOx="1.20" PMx="0.07" fuel="1.13" electricity="0.00" noise="55.94" route="routeright" type="2" waiting="0.00" lane="right_1" pos="363.36" speed="0.00" angle="90.00" x="964.10" y="139.77"/>
        <vehicle id="2_3" eclass="HBEFA3/PC_G_EU4" CO2="2624.72" CO="164.78" HC="0.81" NOx="1.20" PMx="0.07" fuel="1.13" electricity="0.00" noise="55.94" route="routediverge" type="2" waiting="0.00" lane="diverge_0" pos="77.70" speed="0.00" angle="135.00" x="658.40" y="80.68"/>
        <vehicle id="2_4" eclass="HBEFA3/PC_G_EU4" CO2="2624.72" CO="164.78" HC="0.81" NOx="1.20" PMx="0.07" fuel="1.13" electricity="0.00" noise="55.94" route="routeinflow_merge" type="2" waiting="0.00" lane="inflow_merge_0" pos="4.00" speed="0.00" angle="45.00" x="262.58" y="1.66"/>
        <vehicle id="3_0" eclass="HBEFA3/PC_G_EU4" CO2="2624.72" CO="164.78" HC="0.81" NOx="1.20" PMx="0.07" fuel="1.13" electricity="0.00" noise="55.94" route="routeinflow_highway" type="3" waiting="0.00" lane="inflow_highway_0" pos="25.74" speed="0.00" angle="90.00" x="25.74" y="136.47"/>
        <vehicle id="3_1" eclass="HBEFA3/PC_G_EU4" CO2="2624.72" CO="164.78" HC="0.81" NOx="1.20" PMx="0.07" fuel="1.13" electricity="0.00" noise="55.94" route="routeinflow_highway" type="3" waiting="0.00" lane="inflow_highway_1" pos="16.42" speed="0.00" angle="90.00" x="16.42" y="139.77"/>
        <vehicle id="3_2" eclass="HBEFA3/PC_G_EU4" CO2="2624.72" CO="164.78" HC="0.81" NOx="1.20" PMx="0.07" fuel="1.13" electricity="0.00" noise="55.94" route="routeleft" type="3" waiting="0.00" lane="left_0" pos="47.84" speed="0.00" angle="90.00" x="146.57" y="136.47"/>
        <vehicle id="3_3" eclass="HBEFA3/PC_G_EU4" CO2="2624.72" CO="164.78" HC="0.81" NOx="1.20" PMx="0.07" fuel="1.13" electricity="0.00" noise="55.94" route="routeleft" type="3" waiting="0.00" lane="left_1" pos="41.93" speed="0.00" angle="90.00" x="140.81" y="139.77"/>
        <vehicle id="3_4" eclass="HBEFA3/PC_G_EU4" CO2="2624.72" CO="164.78" HC="0.81" NOx="1.20" PMx="0.07" fuel="1.13" electricity="0.00" noise="55.94" route="routeleft" type="3" waiting="0.00" lane="left_0" pos="165.95" speed="0.00" angle="90.00" x="261.53" y="136.47"/>
        <vehicle id="4_0" eclass="HBEFA3/PC_G_EU4" CO2="2624.72" CO="164.78" HC="0.81" NOx="1.20" PMx="0.07" fuel="1.13" electricity="0.00" noise="55.94" route="routeleft" type="4" waiting="0.00" lane="left_1" pos="163.48" speed="0.00" angle="90.00" x="259.13" y="139.77"/>
        <vehicle id="4_1" eclass="HBEFA3/PC_G_EU4" CO2="2624.72" CO="164.78" HC="0.81" NOx="1.20" PMx="0.07" fuel="1.13" electricity="0.00" noise="55.94" route="routeleft" type="4" waiting="0.00" lane="left_0" pos="284.57" speed="0.00" angle="90.00" x="377.00" y="136.47"/>
        <vehicle id="4_2" eclass="HBEFA3/PC_G_EU4" CO2="2624.72" CO="164.78" HC="0.81" NOx="1.20" PMx="0.07" fuel="1.13" electricity="0.00" noise="55.94" route="routeleft" type="4" waiting="0.00" lane="left_1" pos="291.96" speed="0.00" angle="90.00" x="384.20" y="139.77"/>
        <vehicle id="4_3" eclass="HBEFA3/PC_G_EU4" CO2="2624.72" CO="164.78" HC="0.81" NOx="1.20" PMx="0.07" fuel="1.13" electricity="0.00" noise="55.94" route="routecenter" type="4" waiting="0.00" lane="center_0" pos="10.29" speed="0.00" angle="90.00" x="409.88" y="136.47"/>
        <vehicle id="4_4" eclass="HBEFA3/PC_G_EU4" CO2="2624.72" CO="164.78" HC="0.81" NOx="1.20" PMx="0.07" fuel="1.13" electricity="0.00" noise="55.94" route="routecenter" type="4" waiting="0.00" lane="center_1" pos="3.03" speed="0.00" angle="90.00" x="402.59" y="139.77"/>
    </timestep>
    <timestep time="0.20">
        <vehicle id="1_0" eclass="HBEFA3/PC_G_EU4" CO2="2624.72" CO="164.78" HC="0.81" NOx="1.20" PMx="0.07" fuel="1.13" electricity="0.00" noise="55.94" route="routeright" type="1" waiting="0.00" lane="right_0" pos="0.67" speed="0.00" angle="90.00" x="608.63" y="136.47"/>
        <vehicle id="1_1" eclass="HBEFA3/PC_G_EU4" CO2="2624.72" CO="164.78" HC="0.81" NOx="1.20" PMx="0.07" fuel="1.13" electricity="0.00" noise="55.94" route="routeright" type="1" waiting="0.00" lane="right_1" pos="11.89" speed="0.00" angle="90.00" x="619.63" y="139.77"/>
        <vehicle id="1_2" eclass="HBEFA3/PC_G_EU4" CO2="2624.72" CO="164.78" HC="0.81" NOx="1.20" PMx="0.07" fuel="1.13" electricity="0.00" noise="55.94" route="routeright" type="1" waiting="0.00" lane="right_0" pos="129.55" speed="0.00" angle="90.00" x="734.95" y="136.47"/>
        <vehicle id="1_3" eclass="HBEFA3/PC_G_EU4" CO2="2624.72" CO="164.78" HC="0.81" NOx="1.20" PMx="0.07" fuel="1.13" electricity="0.00" noise="55.94" route="routeright" type="1" waiting="0.00" lane="right_1" pos="117.41" speed="0.00" angle="90.00" x="723.04" y="139.77"/>
        <vehicle id="1_4" eclass="HBEFA3/PC_G_EU4" CO2="2624.72" CO="164.78" HC="0.81" NOx="1.20" PMx="0.07" fuel="1.13" electricity="0.00" noise="55.94" route="routeright" type="1" waiting="0.00" lane="right_0" pos="236.35" speed="0.00" angle="90.00" x="839.61" y="136.47"/>
        <vehicle id="2_0" eclass="HBEFA3/PC_G_EU4" CO2="2624.72" CO="164.78" HC="0.81" NOx="1.20" PMx="0.07" fuel="1.13" electricity="0.00" noise="55.94" route="routeright" type="2" waiting="0.00" lane="right_1" pos="245.91" speed="0.00" angle="90.00" x="848.99" y="139.77"/>
        <vehicle id="2_1" eclass="HBEFA3/PC_G_EU4" CO2="2624.72" CO="164.78" HC="0.81" NOx="1.20" PMx="0.07" fuel="1.13" electricity="0.00" noise="55.94" route="routeright" type="2" waiting="0.00" lane="right_0" pos="373.34" speed="0.00" angle="90.00" x="973.87" y="136.47"/>
        <vehicle id="2_2" eclass="HBEFA3/PC_G_EU4" CO2="2624.72" CO="164.78" HC="0.81" NOx="1.20" PMx="0.07" fuel="1.13" electricity="0.00" noise="55.94" route="routeright" type="2" waiting="0.00" lane="right_1" pos="363.36" speed="0.00" angle="90.00" x="964.10" y="139.77"/>
        <vehicle id="2_3" eclass="HBEFA3/PC_G_EU4" CO2="2624.72" CO="164.78" HC="0.81" NOx="1.20" PMx="0.07" fuel="1.13" electricity="0.00" noise="55.94" route="routediverge" type="2" waiting="0.00" lane="diverge_0" pos="77.70" speed="0.00" angle="135.00" x="658.40" y="80.68"/>
        <vehicle id="2_4" eclass="HBEFA3/PC_G_EU4" CO2="2624.72" CO="164.78" HC="0.81" NOx="1.20" PMx="0.07" fuel="1.13" electricity="0.00" noise="55.94" route="routeinflow_merge" type="2" waiting="0.00" lane="inflow_merge_0" pos="4.00" speed="0.00" angle="45.00" x="262.58" y="1.66"/>
        <vehicle id="3_0" eclass="HBEFA3/PC_G_EU4" CO2="2624.72" CO="164.78" HC="0.81" NOx="1.20" PMx="0.07" fuel="1.13" electricity="0.00" noise="55.94" route="routeinflow_highway" type="3" waiting="0.00" lane="inflow_highway_0" pos="25.74" speed="0.00" angle="90.00" x="25.74" y="136.47"/>
        <vehicle id="3_1" eclass="HBEFA3/PC_G_EU4" CO2="2624.72" CO="164.78" HC="0.81" NOx="1.20" PMx="0.07" fuel="1.13" electricity="0.00" noise="55.94" route="routeinflow_highway" type="3" waiting="0.00" lane="inflow_highway_1" pos="16.42" speed="0.00" angle="90.00" x="16.42" y="139.77"/>
        <vehicle id="3_2" eclass="HBEFA3/PC_G_EU4" CO2="2624.72" CO="164.78" HC="0.81" NOx="1.20" PMx="0.07" fuel="1.13" electricity="0.00" noise="55.94" route="routeleft" type="3" waiting="0.00" lane="left_0" pos="47.84" speed="0.00" angle="90.00" x="146.57" y="136.47"/>
        <vehicle id="3_3" eclass="HBEFA3/PC_G_EU4" CO2="2624.72" CO="164.78" HC="0.81" NOx="1.20" PMx="0.07" fuel="1.13" electricity="0.00" noise="55.94" route="routeleft" type="3" waiting="0.00" lane="left_1" pos="41.93" speed="0.00" angle="90.00" x="140.81" y="139.77"/>
        <vehicle id="3_4" eclass="HBEFA3/PC_G_EU4" CO2="2624.72" CO="164.78" HC="0.81" NOx="1.20" PMx="0.07" fuel="1.13" electricity="0.00" noise="55.94" route="routeleft" type="3" waiting="0.00" lane="left_0" pos="165.95" speed="0.00" angle="90.00" x="261.53" y="136.47"/>
        <vehicle id="4_0" eclass="HBEFA3/PC_G_EU4" CO2="2624.72" CO="164.78" HC="0.81" NOx="1.20" PMx="0.07" fuel="1.13" electricity="0.00" noise="55.94" route="routeleft" type="4" waiting="0.00" lane="left_1" pos="163.48" speed="0.00" angle="90.00" x="259.13" y="139.77"/>
        <vehicle id="4_1" eclass="HBEFA3/PC_G_EU4" CO2="2624.72" CO="164.78" HC="0.81" NOx="1.20" PMx="0.07" fuel="1.13" electricity="0.00" noise="55.94" route="routeleft" type="4" waiting="0.00" lane="left_0" pos="284.57" speed="0.00" angle="90.00" x="377.00" y="136.47"/>
        <vehicle id="4_2" eclass="HBEFA3/PC_G_EU4" CO2="2624.72" CO="164.78" HC="0.81" NOx="1.20" PMx="0.07" fuel="1.13" electricity="0.00" noise="55.94" route="routeleft" type="4" waiting="0.00" lane="left_1" pos="291.96" speed="0.00" angle="90.00" x="384.20" y="139.77"/>
        <vehicle id="4_3" eclass="HBEFA3/PC_G_EU4" CO2="2624.72" CO="164.78" HC="0.81" NOx="1.20" PMx="0.07" fuel="1.13" electricity="0.00" noise="55.94" route="routecenter" type="4" waiting="0.00" lane="center_0" pos="10.29" speed="0.00" angle="90.00" x="409.88" y="136.47"/>
        <vehicle id="4_4" eclass="HBEFA3/PC_G_EU4" CO2="2624.72" CO="164.78" HC="0.81" NOx="1.20" PMx="0.07" fuel="1.13" electricity="0.00" noise="55.94" route="routecenter" type="4" waiting="0.00" lane="center_1" pos="3.03" speed="0.00" angle="90.00" x="402.59" y="139.77"/>
    </timestep>
    <timestep time="0.40">
        <vehicle id="1_0" eclass="HBEFA3/PC_G_EU4" CO2="2651.22" CO="161.80" HC="0.80" NOx="1.21" PMx="0.07" fuel="1.14" electricity="0.00" noise="60.41" route="routeright" type="1" waiting="0.00" lane="right_0" pos="0.71" speed="0.20" angle="90.00" x="608.67" y="136.47"/>
        <vehicle id="1_1" eclass="HBEFA3/PC_G_EU4" CO2="2650.91" CO="161.81" HC="0.80" NOx="1.21" PMx="0.07" fuel="1.14" electricity="0.00" noise="60.40" route="routeright" type="1" waiting="0.00" lane="right_1" pos="11.93" speed="0.20" angle="90.00" x="619.67" y="139.77"/>
        <vehicle id="1_2" eclass="HBEFA3/PC_G_EU4" CO2="2651.22" CO="161.80" HC="0.80" NOx="1.21" PMx="0.07" fuel="1.14" electricity="0.00" noise="60.41" route="routeright" type="1" waiting="0.00" lane="right_0" pos="129.59" speed="0.20" angle="90.00" x="734.99" y="136.47"/>
        <vehicle id="1_3" eclass="HBEFA3/PC_G_EU4" CO2="2639.75" CO="162.14" HC="0.80" NOx="1.21" PMx="0.07" fuel="1.13" electricity="0.00" noise="59.69" route="routeright" type="1" waiting="0.00" lane="right_1" pos="117.44" speed="0.17" angle="90.00" x="723.08" y="139.77"/>
        <vehicle id="1_4" eclass="HBEFA3/PC_G_EU4" CO2="2636.18" CO="162.28" HC="0.80" NOx="1.21" PMx="0.07" fuel="1.13" electricity="0.00" noise="59.41" route="routeright" type="1" waiting="0.00" lane="right_0" pos="236.38" speed="0.16" angle="90.00" x="839.64" y="136.47"/>
        <vehicle id="2_0" eclass="HBEFA3/PC_G_EU4" CO2="2651.22" CO="161.80" HC="0.80" NOx="1.21" PMx="0.07" fuel="1.14" electricity="0.00" noise="60.41" route="routeright" type="2" waiting="0.00" lane="right_1" pos="245.95" speed="0.20" angle="90.00" x="849.03" y="139.77"/>
        <vehicle id="2_1" eclass="HBEFA3/PC_G_EU4" CO2="2641.08" CO="162.09" HC="0.80" NOx="1.21" PMx="0.07" fuel="1.14" electricity="0.00" noise="59.78" route="routeright" type="2" waiting="0.00" lane="right_0" pos="373.37" speed="0.17" angle="90.00" x="973.91" y="136.47"/>
        <vehicle id="2_2" eclass="HBEFA3/PC_G_EU4" CO2="2651.22" CO="161.80" HC="0.80" NOx="1.21" PMx="0.07" fuel="1.14" electricity="0.00" noise="60.41" route="routeright" type="2" waiting="0.00" lane="right_1" pos="363.40" speed="0.20" angle="90.00" x="964.13" y="139.77"/>
        <vehicle id="2_3" eclass="HBEFA3/PC_G_EU4" CO2="2636.87" CO="162.25" HC="0.80" NOx="1.21" PMx="0.07" fuel="1.13" electricity="0.00" noise="59.47" route="routediverge" type="2" waiting="0.00" lane="diverge_0" pos="77.73" speed="0.16" angle="135.00" x="658.42" y="80.66"/>
        <vehicle id="2_4" eclass="HBEFA3/PC_G_EU4" CO2="2651.22" CO="161.80" HC="0.80" NOx="1.21" PMx="0.07" fuel="1.14" electricity="0.00" noise="60.41" route="routeinflow_merge" type="2" waiting="0.00" lane="inflow_merge_0" pos="4.04" speed="0.20" angle="45.00" x="262.60" y="1.68"/>
        <vehicle id="3_0" eclass="HBEFA3/PC_G_EU4" CO2="2651.22" CO="161.80" HC="0.80" NOx="1.21" PMx="0.07" fuel="1.14" electricity="0.00" noise="60.41" route="routeinflow_highway" type="3" waiting="0.00" lane="inflow_highway_0" pos="25.78" speed="0.20" angle="90.00" x="25.78" y="136.47"/>
        <vehicle id="3_1" eclass="HBEFA3/PC_G_EU4" CO2="2651.22" CO="161.80" HC="0.80" NOx="1.21" PMx="0.07" fuel="1.14" electricity="0.00" noise="60.41" route="routeinflow_highway" type="3" waiting="0.00" lane="inflow_highway_1" pos="16.46" speed="0.20" angle="90.00" x="16.46" y="139.77"/>
        <vehicle id="3_2" eclass="HBEFA3/PC_G_EU4" CO2="2651.22" CO="161.80" HC="0.80" NOx="1.21" PMx="0.07" fuel="1.14" electricity="0.00" noise="60.41" route="routeleft" type="3" waiting="0.00" lane="left_0" pos="47.88" speed="0.20" angle="90.00" x="146.61" y="136.47"/>
        <vehicle id="3_3" eclass="HBEFA3/PC_G_EU4" CO2="2651.22" CO="161.80" HC="0.80" NOx="1.21" PMx="0.07" fuel="1.14" electricity="0.00" noise="60.41" route="routeleft" type="3" waiting="0.00" lane="left_1" pos="41.97" speed="0.20" angle="90.00" x="140.85" y="139.77"/>
        <vehicle id="3_4" eclass="HBEFA3/PC_G_EU4" CO2="2651.22" CO="161.80" HC="0.80" NOx="1.21" PMx="0.07" fuel="1.14" electricity="0.00" noise="60.41" route="routeleft" type="3" waiting="0.00" lane="left_0" pos="165.99" speed="0.20" angle="90.00" x="261.57" y="136.47"/>
        <vehicle id="4_0" eclass="HBEFA3/PC_G_EU4" CO2="2632.26" CO="162.47" HC="0.80" NOx="1.20" PMx="0.07" fuel="1.13" electricity="0.00" noise="59.07" route="routeleft" type="4" waiting="0.00" lane="left_1" pos="163.51" speed="0.14" angle="90.00" x="259.16" y="139.77"/>
        <vehicle id="4_1" eclass="HBEFA3/PC_G_EU4" CO2="2635.60" CO="162.30" HC="0.80" NOx="1.21" PMx="0.07" fuel="1.13" electricity="0.00" noise="59.37" route="routeleft" type="4" waiting="0.00" lane="left_0" pos="284.60" speed="0.15" angle="90.00" x="377.03" y="136.47"/>
        <vehicle id="4_2" eclass="HBEFA3/PC_G_EU4" CO2="2648.35" CO="161.88" HC="0.80" NOx="1.21" PMx="0.07" fuel="1.14" electricity="0.00" noise="60.25" route="routeleft" type="4" waiting="0.00" lane="left_1" pos="292.00" speed="0.19" angle="90.00" x="384.23" y="139.77"/>
        <vehicle id="4_3" eclass="HBEFA3/PC_G_EU4" CO2="2648.81" CO="161.86" HC="0.80" NOx="1.21" PMx="0.07" fuel="1.14" electricity="0.00" noise="60.28" route="routecenter" type="4" waiting="0.00" lane="center_0" pos="10.33" speed="0.19" angle="90.00" x="409.92" y="136.47"/>
        <vehicle id="4_4" eclass="HBEFA3/PC_G_EU4" CO2="2651.22" CO="161.80" HC="0.80" NOx="1.21" PMx="0.07" fuel="1.14" electricity="0.00" noise="60.41" route="routecenter" type="4" waiting="0.00" lane="center_1" pos="3.07" speed="0.20" angle="90.00" x="402.63" y="139.77"/>
    </timestep>
    <timestep time="0.60">
        <vehicle id="1_0" eclass="HBEFA3/PC_G_EU4" CO2="2678.34" CO="158.88" HC="0.79" NOx="1.22" PMx="0.07" fuel="1.15" electricity="0.00" noise="60.49" route="routeright" type="1" waiting="0.00" lane="right_0" pos="0.79" speed="0.40" angle="90.00" x="608.75" y="136.47"/>
        <vehicle id="1_1" eclass="HBEFA3/PC_G_EU4" CO2="2678.24" CO="158.89" HC="0.79" NOx="1.22" PMx="0.07" fuel="1.15" electricity="0.00" noise="60.49" route="routeright" type="1" waiting="0.00" lane="right_1" pos="12.01" speed="0.40" angle="90.00" x="619.75" y="139.77"/>
        <vehicle id="1_2" eclass="HBEFA3/PC_G_EU4" CO2="2678.34" CO="158.88" HC="0.79" NOx="1.22" PMx="0.07" fuel="1.15" electricity="0.00" noise="60.49" route="routeright" type="1" waiting="0.00" lane="right_0" pos="129.67" speed="0.40" angle="90.00" x="735.07" y="136.47"/>
        <vehicle id="1_3" eclass="HBEFA3/PC_G_EU4" CO2="2673.88" CO="159.35" HC="0.79" NOx="1.22" PMx="0.07" fuel="1.15" electricity="0.00" noise="60.48" route="routeright" type="1" waiting="0.00" lane="right_1" pos="117.51" speed="0.37" angle="90.00" x="723.15" y="139.77"/>
        <vehicle id="1_4" eclass="HBEFA3/PC_G_EU4" CO2="2660.83" CO="159.64" HC="0.79" NOx="1.21" PMx="0.07" fuel="1.14" electricity="0.00" noise="60.03" route="routeright" type="1" waiting="0.00" lane="right_0" pos="236.44" speed="0.34" angle="90.00" x="839.71" y="136.47"/>
        <vehicle id="2_0" eclass="HBEFA3/PC_G_EU4" CO2="2627.79" CO="159.48" HC="0.79" NOx="1.20" PMx="0.06" fuel="1.13" electricity="0.00" noise="58.37" route="routeright" type="2" waiting="0.00" lane="right_1" pos="246.01" speed="0.31" angle="90.00" x="849.09" y="139.77"/>
        <vehicle id="2_1" eclass="HBEFA3/PC_G_EU4" CO2="2674.46" CO="159.29" HC="0.79" NOx="1.22" PMx="0.07" fuel="1.15" electricity="0.00" noise="60.48" route="routeright" type="2" waiting="0.00" lane="right_0" pos="373.45" speed="0.37" angle="90.00" x="973.98" y="136.47"/>
        <vehicle id="2_2" eclass="HBEFA3/PC_G_EU4" CO2="2678.34" CO="158.88" HC="0.79" NOx="1.22" PMx="0.07" fuel="1.15" electricity="0.00" noise="60.49" route="routeright" type="2" waiting="0.00" lane="right_1" pos="363.48" speed="0.40" angle="90.00" x="964.21" y="139.77"/>
        <vehicle id="2_3" eclass="HBEFA3/PC_G_EU4" CO2="2672.56" CO="159.49" HC="0.79" NOx="1.22" PMx="0.07" fuel="1.15" electricity="0.00" noise="60.47" route="routediverge" type="2" waiting="0.00" lane="diverge_0" pos="77.80" speed="0.36" angle="135.00" x="658.47" y="80.61"/>
        <vehicle id="2_4" eclass="HBEFA3/PC_G_EU4" CO2="2678.34" CO="158.88" HC="0.79" NOx="1.22" PMx="0.07" fuel="1.15" electricity="0.00" noise="60.49" route="routeinflow_merge" type="2" waiting="0.00" lane="inflow_merge_0" pos="4.12" speed="0.40" angle="45.00" x="262.66" y="1.74"/>
        <vehicle id="3_0" eclass="HBEFA3/PC_G_EU4" CO2="2678.34" CO="158.88" HC="0.79" NOx="1.22" PMx="0.07" fuel="1.15" electricity="0.00" noise="60.49" route="routeinflow_highway" type="3" waiting="0.00" lane="inflow_highway_0" pos="25.86" speed="0.40" angle="90.00" x="25.86" y="136.47"/>
        <vehicle id="3_1" eclass="HBEFA3/PC_G_EU4" CO2="2678.34" CO="158.88" HC="0.79" NOx="1.22" PMx="0.07" fuel="1.15" electricity="0.00" noise="60.49" route="routeinflow_highway" type="3" waiting="0.00" lane="inflow_highway_1" pos="16.54" speed="0.40" angle="90.00" x="16.54" y="139.77"/>
        <vehicle id="3_2" eclass="HBEFA3/PC_G_EU4" CO2="2678.34" CO="158.88" HC="0.79" NOx="1.22" PMx="0.07" fuel="1.15" electricity="0.00" noise="60.49" route="routeleft" type="3" waiting="0.00" lane="left_0" pos="47.96" speed="0.40" angle="90.00" x="146.69" y="136.47"/>
        <vehicle id="3_3" eclass="HBEFA3/PC_G_EU4" CO2="2649.02" CO="159.13" HC="0.79" NOx="1.21" PMx="0.06" fuel="1.14" electricity="0.00" noise="59.38" route="routeleft" type="3" waiting="0.00" lane="left_1" pos="42.04" speed="0.35" angle="90.00" x="140.92" y="139.77"/>
        <vehicle id="3_4" eclass="HBEFA3/PC_G_EU4" CO2="2678.34" CO="158.88" HC="0.79" NOx="1.22" PMx="0.07" fuel="1.15" electricity="0.00" noise="60.49" route="routeleft" type="3" waiting="0.00" lane="left_0" pos="166.07" speed="0.40" angle="90.00" x="261.65" y="136.47"/>
        <vehicle id="4_0" eclass="HBEFA3/PC_G_EU4" CO2="2665.00" CO="159.80" HC="0.79" NOx="1.21" PMx="0.07" fuel="1.15" electricity="0.00" noise="60.26" route="routeleft" type="4" waiting="0.00" lane="left_1" pos="163.57" speed="0.33" angle="90.00" x="259.22" y="139.77"/>
        <vehicle id="4_1" eclass="HBEFA3/PC_G_EU4" CO2="2648.68" CO="159.83" HC="0.79" NOx="1.21" PMx="0.06" fuel="1.14" electricity="0.00" noise="59.51" route="routeleft" type="4" waiting="0.00" lane="left_0" pos="284.66" speed="0.31" angle="90.00" x="377.09" y="136.47"/>
        <vehicle id="4_2" eclass="HBEFA3/PC_G_EU4" CO2="2677.32" CO="158.99" HC="0.79" NOx="1.22" PMx="0.07" fuel="1.15" electricity="0.00" noise="60.49" route="routeleft" type="4" waiting="0.00" lane="left_1" pos="292.08" speed="0.39" angle="90.00" x="384.31" y="139.77"/>
        <vehicle id="4_3" eclass="HBEFA3/PC_G_EU4" CO2="2677.49" CO="158.97" HC="0.79" NOx="1.22" PMx="0.07" fuel="1.15" electricity="0.00" noise="60.49" route="routecenter" type="4" waiting="0.00" lane="center_0" pos="10.40" speed="0.39" angle="90.00" x="410.00" y="136.47"/>
        <vehicle id="4_4" eclass="HBEFA3/PC_G_EU4" CO2="2676.54" CO="158.89" HC="0.79" NOx="1.22" PMx="0.07" fuel="1.15" electricity="0.00" noise="60.43" route="routecenter" type="4" waiting="0.00" lane="center_1" pos="3.14" speed="0.40" angle="90.00" x="402.71" y="139.77"/>
    </timestep>
    <timestep time="0.80">
        <vehicle id="1_0" eclass="HBEFA3/PC_G_EU4" CO2="2706.10" CO="156.00" HC="0.77" NOx="1.23" PMx="0.06" fuel="1.16" electricity="0.00" noise="60.57" route="routeright" type="1" waiting="0.00" lane="right_0" pos="0.91" speed="0.60" angle="90.00" x="608.87" y="136.47"/>
        <vehicle id="1_1" eclass="HBEFA3/PC_G_EU4" CO2="2660.21" CO="155.99" HC="0.77" NOx="1.21" PMx="0.06" fuel="1.14" electricity="0.00" noise="59.36" route="routeright" type="1" waiting="0.00" lane="right_1" pos="12.12" speed="0.55" angle="90.00" x="619.86" y="139.77"/>
        <vehicle id="1_2" eclass="HBEFA3/PC_G_EU4" CO2="2706.10" CO="156.00" HC="0.77" NOx="1.23" PMx="0.06" fuel="1.16" electricity="0.00" noise="60.57" route="routeright" type="1" waiting="0.00" lane="right_0" pos="129.79" speed="0.60" angle="90.00" x="735.18" y="136.47"/>
        <vehicle id="1_3" eclass="HBEFA3/PC_G_EU4" CO2="2700.02" CO="156.46" HC="0.78" NOx="1.22" PMx="0.06" fuel="1.16" electricity="0.00" noise="60.51" route="routeright" type="1" waiting="0.00" lane="right_1" pos="117.63" speed="0.57" angle="90.00" x="723.26" y="139.77"/>
        <vehicle id="1_4" eclass="HBEFA3/PC_G_EU4" CO2="2697.06" CO="156.92" HC="0.78" NOx="1.22" PMx="0.06" fuel="1.16" electricity="0.00" noise="60.54" route="routeright" type="1" waiting="0.00" lane="right_0" pos="236.55" speed="0.54" angle="90.00" x="839.81" y="136.47"/>
        <vehicle id="2_0" eclass="HBEFA3/PC_G_EU4" CO2="2692.89" CO="157.35" HC="0.78" NOx="1.22" PMx="0.06" fuel="1.16" electricity="0.00" noise="60.53" route="routeright" type="2" waiting="0.00" lane="right_1" pos="246.12" speed="0.51" angle="90.00" x="849.19" y="139.77"/>
        <vehicle id="2_1" eclass="HBEFA3/PC_G_EU4" CO2="2702.13" CO="156.40" HC="0.78" NOx="1.23" PMx="0.06" fuel="1.16" electricity="0.00" noise="60.55" route="routeright" type="2" waiting="0.00" lane="right_0" pos="373.56" speed="0.57" angle="90.00" x="974.09" y="136.47"/>
        <vehicle id="2_2" eclass="HBEFA3/PC_G_EU4" CO2="2672.49" CO="155.97" HC="0.77" NOx="1.21" PMx="0.06" fuel="1.15" electricity="0.00" noise="59.70" route="routeright" type="2" waiting="0.00" lane="right_1" pos="363.60" speed="0.56" angle="90.00" x="964.32" y="139.77"/>
        <vehicle id="2_3" eclass="HBEFA3/PC_G_EU4" CO2="2619.26" CO="156.88" HC="0.78" NOx="1.19" PMx="0.06" fuel="1.13" electricity="0.00" noise="58.03" route="routediverge" type="2" waiting="0.00" lane="diverge_0" pos="77.89" speed="0.45" angle="135.00" x="658.53" y="80.55"/>
        <vehicle id="2_4" eclass="HBEFA3/PC_G_EU4" CO2="2706.10" CO="156.00" HC="0.77" NOx="1.23" PMx="0.06" fuel="1.16" electricity="0.00" noise="60.57" route="routeinflow_merge" type="2" waiting="0.00" lane="inflow_merge_0" pos="4.24" speed="0.60" angle="45.00" x="262.75" y="1.83"/>
        <vehicle id="3_0" eclass="HBEFA3/PC_G_EU4" CO2="2680.42" CO="155.97" HC="0.77" NOx="1.21" PMx="0.06" fuel="1.15" electricity="0.00" noise="59.92" route="routeinflow_highway" type="3" waiting="0.00" lane="inflow_highway_0" pos="25.97" speed="0.57" angle="90.00" x="25.97" y="136.47"/>
        <vehicle id="3_1" eclass="HBEFA3/PC_G_EU4" CO2="2706.10" CO="156.00" HC="0.77" NOx="1.23" PMx="0.06" fuel="1.16" electricity="0.00" noise="60.57" route="routeinflow_highway" type="3" waiting="0.00" lane="inflow_highway_1" pos="16.66" speed="0.60" angle="90.00" x="16.66" y="139.77"/>
        <vehicle id="3_2" eclass="HBEFA3/PC_G_EU4" CO2="2706.10" CO="156.00" HC="0.77" NOx="1.23" PMx="0.06" fuel="1.16" electricity="0.00" noise="60.57" route="routeleft" type="3" waiting="0.00" lane="left_0" pos="48.08" speed="0.60" angle="90.00" x="146.80" y="136.47"/>
        <vehicle id="3_3" eclass="HBEFA3/PC_G_EU4" CO2="2699.18" CO="156.70" HC="0.78" NOx="1.22" PMx="0.06" fuel="1.16" electricity="0.00" noise="60.55" route="routeleft" type="3" waiting="0.00" lane="left_1" pos="42.15" speed="0.55" angle="90.00" x="141.02" y="139.77"/>
        <vehicle id="3_4" eclass="HBEFA3/PC_G_EU4" CO2="2706.10" CO="156.00" HC="0.77" NOx="1.23" PMx="0.06" fuel="1.16" electricity="0.00" noise="60.57" route="routeleft" type="3" waiting="0.00" lane="left_0" pos="166.19" speed="0.60" angle="90.00" x="261.77" y="136.47"/>
        <vehicle id="4_0" eclass="HBEFA3/PC_G_EU4" CO2="2696.45" CO="156.99" HC="0.78" NOx="1.22" PMx="0.06" fuel="1.16" electricity="0.00" noise="60.54" route="routeleft" type="4" waiting="0.00" lane="left_1" pos="163.68" speed="0.53" angle="90.00" x="259.33" y="139.77"/>
        <vehicle id="4_1" eclass="HBEFA3/PC_G_EU4" CO2="2693.54" CO="157.29" HC="0.78" NOx="1.22" PMx="0.06" fuel="1.16" electricity="0.00" noise="60.53" route="routeleft" type="4" waiting="0.00" lane="left_0" pos="284.76" speed="0.51" angle="90.00" x="377.19" y="136.47"/>
        <vehicle id="4_2" eclass="HBEFA3/PC_G_EU4" CO2="2705.05" CO="156.10" HC="0.77" NOx="1.23" PMx="0.06" fuel="1.16" electricity="0.00" noise="60.56" route="routeleft" type="4" waiting="0.00" lane="left_1" pos="292.20" speed="0.59" angle="90.00" x="384.43" y="139.77"/>
        <vehicle id="4_3" eclass="HBEFA3/PC_G_EU4" CO2="2681.11" CO="156.06" HC="0.77" NOx="1.22" PMx="0.06" fuel="1.15" electricity="0.00" noise="59.95" route="routecenter" type="4" waiting="0.00" lane="center_0" pos="10.52" speed="0.57" angle="90.00" x="410.12" y="136.47"/>
        <vehicle id="4_4" eclass="HBEFA3/PC_G_EU4" CO2="2704.29" CO="156.03" HC="0.77" NOx="1.23" PMx="0.06" fuel="1.16" electricity="0.00" noise="60.53" route="routecenter" type="4" waiting="0.00" lane="center_1" pos="3.26" speed="0.60" angle="90.00" x="402.83" y="139.77"/>
    </timestep>
    <timestep time="1.00">
        <vehicle id="1_0" eclass="HBEFA3/PC_G_EU4" CO2="2734.47" CO="153.16" HC="0.76" NOx="1.23" PMx="0.06" fuel="1.18" electricity="0.00" noise="60.64" route="routeright" type="1" waiting="0.00" lane="right_0" pos="1.07" speed="0.80" angle="90.00" x="609.03" y="136.47"/>