<?xml version="1.0" encoding="UTF-8"?>

<!-- generated on Mon Nov 19 19:55:42 2018 by SUMO gui Version b'v0_31_0-812-g1d4338ab80'
<?xml version="1.0" encoding="UTF-8"?>

<configuration xmlns:xsi="http://www.w3.org/2001/XMLSchema-instance" xsi:noNamespaceSchemaLocation="http://sumo.dlr.de/xsd/sumoConfiguration.xsd">

    <input>
        <net-file value="/Users/barryfan/flow/flow/scenarios/debug/cfg/merge-baseline_20181119-1955411542686141.686201.net.xml"/>
        <route-files value="/Users/barryfan/flow/flow/scenarios/debug/cfg/merge-baseline_20181119-1955411542686141.686201.rou.xml"/>
        <additional-files value="/Users/barryfan/flow/flow/scenarios/debug/cfg/merge-baseline_20181119-1955411542686141.686201.add.xml"/>
    </input>

    <output>
        <emission-output value="./data/merge-baseline_20181119-1955411542686141.686201-emission.xml"/>
    </output>

    <time>
        <begin value="0"/>
        <step-length value="0.2"/>
    </time>

    <processing>
        <time-to-teleport value="-1"/>
    </processing>

    <report>
        <no-step-log value="true"/>
    </report>

    <traci_server>
        <remote-port value="62908"/>
    </traci_server>

    <gui_only>
        <gui-settings-file value="/Users/barryfan/flow/flow/scenarios/debug/cfg/merge-baseline_20181119-1955411542686141.686201.gui.cfg"/>
        <tracker-interval value="0.2"/>
    </gui_only>

</configuration>
-->

<emission-export xmlns:xsi="http://www.w3.org/2001/XMLSchema-instance" xsi:noNamespaceSchemaLocation="http://sumo.dlr.de/xsd/emission_file.xsd">
    <timestep time="0.00">
        <vehicle id="1_0" eclass="HBEFA3/PC_G_EU4" CO2="2624.72" CO="164.78" HC="0.81" NOx="1.20" PMx="0.07" fuel="1.13" electricity="0.00" noise="55.94" route="routeinflow_merge" type="1" waiting="0.00" lane="inflow_merge_0" pos="0.00" speed="0.00" angle="45.00" x="259.75" y="-1.17"/>
        <vehicle id="1_1" eclass="HBEFA3/PC_G_EU4" CO2="2624.72" CO="164.78" HC="0.81" NOx="1.20" PMx="0.07" fuel="1.13" electricity="0.00" noise="55.94" route="routeinflow_highway" type="1" waiting="0.00" lane="inflow_highway_0" pos="25.22" speed="0.00" angle="90.00" x="25.22" y="136.47"/>
        <vehicle id="1_2" eclass="HBEFA3/PC_G_EU4" CO2="2624.72" CO="164.78" HC="0.81" NOx="1.20" PMx="0.07" fuel="1.13" electricity="0.00" noise="55.94" route="routeinflow_highway" type="1" waiting="0.00" lane="inflow_highway_1" pos="25.75" speed="0.00" angle="90.00" x="25.75" y="139.77"/>
        <vehicle id="1_3" eclass="HBEFA3/PC_G_EU4" CO2="2624.72" CO="164.78" HC="0.81" NOx="1.20" PMx="0.07" fuel="1.13" electricity="0.00" noise="55.94" route="routeright" type="1" waiting="0.00" lane="right_0" pos="46.01" speed="0.00" angle="90.00" x="653.07" y="136.47"/>
        <vehicle id="1_4" eclass="HBEFA3/PC_G_EU4" CO2="2624.72" CO="164.78" HC="0.81" NOx="1.20" PMx="0.07" fuel="1.13" electricity="0.00" noise="55.94" route="routeright" type="1" waiting="0.00" lane="right_1" pos="44.48" speed="0.00" angle="90.00" x="651.57" y="139.77"/>
        <vehicle id="2_0" eclass="HBEFA3/PC_G_EU4" CO2="2624.72" CO="164.78" HC="0.81" NOx="1.20" PMx="0.07" fuel="1.13" electricity="0.00" noise="55.94" route="routeright" type="2" waiting="0.00" lane="right_0" pos="169.26" speed="0.00" angle="90.00" x="773.86" y="136.47"/>
        <vehicle id="2_1" eclass="HBEFA3/PC_G_EU4" CO2="2624.72" CO="164.78" HC="0.81" NOx="1.20" PMx="0.07" fuel="1.13" electricity="0.00" noise="55.94" route="routeright" type="2" waiting="0.00" lane="right_1" pos="159.97" speed="0.00" angle="90.00" x="764.76" y="139.77"/>
        <vehicle id="2_2" eclass="HBEFA3/PC_G_EU4" CO2="2624.72" CO="164.78" HC="0.81" NOx="1.20" PMx="0.07" fuel="1.13" electricity="0.00" noise="55.94" route="routeright" type="2" waiting="0.00" lane="right_0" pos="291.51" speed="0.00" angle="90.00" x="893.67" y="136.47"/>
        <vehicle id="2_3" eclass="HBEFA3/PC_G_EU4" CO2="2624.72" CO="164.78" HC="0.81" NOx="1.20" PMx="0.07" fuel="1.13" electricity="0.00" noise="55.94" route="routeright" type="2" waiting="0.00" lane="right_1" pos="278.93" speed="0.00" angle="90.00" x="881.34" y="139.77"/>
        <vehicle id="2_4" eclass="HBEFA3/PC_G_EU4" CO2="2624.72" CO="164.78" HC="0.81" NOx="1.20" PMx="0.07" fuel="1.13" electricity="0.00" noise="55.94" route="routecenter" type="2" waiting="0.00" lane="center_0" pos="0.00" speed="0.00" angle="65.13" x="399.55" y="136.47"/>
        <vehicle id="3_0" eclass="HBEFA3/PC_G_EU4" CO2="2624.72" CO="164.78" HC="0.81" NOx="1.20" PMx="0.07" fuel="1.13" electricity="0.00" noise="55.94" route="routecenter" type="3" waiting="0.00" lane="center_1" pos="5.17" speed="0.00" angle="90.00" x="404.75" y="139.77"/>
        <vehicle id="3_1" eclass="HBEFA3/PC_G_EU4" CO2="2624.72" CO="164.78" HC="0.81" NOx="1.20" PMx="0.07" fuel="1.13" electricity="0.00" noise="55.94" route="routecenter" type="3" waiting="0.00" lane="center_0" pos="129.14" speed="0.00" angle="90.00" x="529.28" y="136.47"/>
        <vehicle id="3_2" eclass="HBEFA3/PC_G_EU4" CO2="2624.72" CO="164.78" HC="0.81" NOx="1.20" PMx="0.07" fuel="1.13" electricity="0.00" noise="55.94" route="routecenter" type="3" waiting="0.00" lane="center_1" pos="130.06" speed="0.00" angle="90.00" x="530.19" y="139.77"/>
        <vehicle id="3_3" eclass="HBEFA3/PC_G_EU4" CO2="2624.72" CO="164.78" HC="0.81" NOx="1.20" PMx="0.07" fuel="1.13" electricity="0.00" noise="55.94" route="routemerge" type="3" waiting="0.00" lane="merge_0" pos="46.10" speed="0.00" angle="45.00" x="359.57" y="98.65"/>
        <vehicle id="3_4" eclass="HBEFA3/PC_G_EU4" CO2="2624.72" CO="164.78" HC="0.81" NOx="1.20" PMx="0.07" fuel="1.13" electricity="0.00" noise="55.94" route="routediverge" type="3" waiting="0.00" lane="diverge_0" pos="66.25" speed="0.00" angle="135.00" x="650.75" y="88.34"/>
        <vehicle id="4_0" eclass="HBEFA3/PC_G_EU4" CO2="2624.72" CO="164.78" HC="0.81" NOx="1.20" PMx="0.07" fuel="1.13" electricity="0.00" noise="55.94" route="routediverge" type="4" waiting="0.00" lane="diverge_0" pos="187.57" speed="0.00" angle="135.00" x="731.93" y="7.15"/>
        <vehicle id="4_1" eclass="HBEFA3/PC_G_EU4" CO2="2624.72" CO="164.78" HC="0.81" NOx="1.20" PMx="0.07" fuel="1.13" electricity="0.00" noise="55.94" route="routeleft" type="4" waiting="0.00" lane="left_0" pos="105.15" speed="0.00" angle="90.00" x="202.35" y="136.47"/>
        <vehicle id="4_2" eclass="HBEFA3/PC_G_EU4" CO2="2624.72" CO="164.78" HC="0.81" NOx="1.20" PMx="0.07" fuel="1.13" electricity="0.00" noise="55.94" route="routeleft" type="4" waiting="0.00" lane="left_1" pos="119.79" speed="0.00" angle="90.00" x="216.60" y="139.77"/>
        <vehicle id="4_3" eclass="HBEFA3/PC_G_EU4" CO2="2624.72" CO="164.78" HC="0.81" NOx="1.20" PMx="0.07" fuel="1.13" electricity="0.00" noise="55.94" route="routeleft" type="4" waiting="0.00" lane="left_0" pos="221.28" speed="0.00" angle="90.00" x="315.39" y="136.47"/>
        <vehicle id="4_4" eclass="HBEFA3/PC_G_EU4" CO2="2624.72" CO="164.78" HC="0.81" NOx="1.20" PMx="0.07" fuel="1.13" electricity="0.00" noise="55.94" route="routeleft" type="4" waiting="0.00" lane="left_1" pos="223.24" speed="0.00" angle="90.00" x="317.31" y="139.77"/>
    </timestep>
    <timestep time="0.20">
        <vehicle id="1_0" eclass="HBEFA3/PC_G_EU4" CO2="2624.72" CO="164.78" HC="0.81" NOx="1.20" PMx="0.07" fuel="1.13" electricity="0.00" noise="55.94" route="routeinflow_merge" type="1" waiting="0.00" lane="inflow_merge_0" pos="0.00" speed="0.00" angle="45.00" x="259.75" y="-1.17"/>
        <vehicle id="1_1" eclass="HBEFA3/PC_G_EU4" CO2="2624.72" CO="164.78" HC="0.81" NOx="1.20" PMx="0.07" fuel="1.13" electricity="0.00" noise="55.94" route="routeinflow_highway" type="1" waiting="0.00" lane="inflow_highway_0" pos="25.22" speed="0.00" angle="90.00" x="25.22" y="136.47"/>
        <vehicle id="1_2" eclass="HBEFA3/PC_G_EU4" CO2="2624.72" CO="164.78" HC="0.81" NOx="1.20" PMx="0.07" fuel="1.13" electricity="0.00" noise="55.94" route="routeinflow_highway" type="1" waiting="0.00" lane="inflow_highway_1" pos="25.75" speed="0.00" angle="90.00" x="25.75" y="139.77"/>
        <vehicle id="1_3" eclass="HBEFA3/PC_G_EU4" CO2="2624.72" CO="164.78" HC="0.81" NOx="1.20" PMx="0.07" fuel="1.13" electricity="0.00" noise="55.94" route="routeright" type="1" waiting="0.00" lane="right_0" pos="46.01" speed="0.00" angle="90.00" x="653.07" y="136.47"/>
        <vehicle id="1_4" eclass="HBEFA3/PC_G_EU4" CO2="2624.72" CO="164.78" HC="0.81" NOx="1.20" PMx="0.07" fuel="1.13" electricity="0.00" noise="55.94" route="routeright" type="1" waiting="0.00" lane="right_1" pos="44.48" speed="0.00" angle="90.00" x="651.57" y="139.77"/>
        <vehicle id="2_0" eclass="HBEFA3/PC_G_EU4" CO2="2624.72" CO="164.78" HC="0.81" NOx="1.20" PMx="0.07" fuel="1.13" electricity="0.00" noise="55.94" route="routeright" type="2" waiting="0.00" lane="right_0" pos="169.26" speed="0.00" angle="90.00" x="773.86" y="136.47"/>
        <vehicle id="2_1" eclass="HBEFA3/PC_G_EU4" CO2="2624.72" CO="164.78" HC="0.81" NOx="1.20" PMx="0.07" fuel="1.13" electricity="0.00" noise="55.94" route="routeright" type="2" waiting="0.00" lane="right_1" pos="159.97" speed="0.00" angle="90.00" x="764.76" y="139.77"/>
        <vehicle id="2_2" eclass="HBEFA3/PC_G_EU4" CO2="2624.72" CO="164.78" HC="0.81" NOx="1.20" PMx="0.07" fuel="1.13" electricity="0.00" noise="55.94" route="routeright" type="2" waiting="0.00" lane="right_0" pos="291.51" speed="0.00" angle="90.00" x="893.67" y="136.47"/>
        <vehicle id="2_3" eclass="HBEFA3/PC_G_EU4" CO2="2624.72" CO="164.78" HC="0.81" NOx="1.20" PMx="0.07" fuel="1.13" electricity="0.00" noise="55.94" route="routeright" type="2" waiting="0.00" lane="right_1" pos="278.93" speed="0.00" angle="90.00" x="881.34" y="139.77"/>
        <vehicle id="2_4" eclass="HBEFA3/PC_G_EU4" CO2="2624.72" CO="164.78" HC="0.81" NOx="1.20" PMx="0.07" fuel="1.13" electricity="0.00" noise="55.94" route="routecenter" type="2" waiting="0.00" lane="center_0" pos="0.00" speed="0.00" angle="65.13" x="399.55" y="136.47"/>
        <vehicle id="3_0" eclass="HBEFA3/PC_G_EU4" CO2="2624.72" CO="164.78" HC="0.81" NOx="1.20" PMx="0.07" fuel="1.13" electricity="0.00" noise="55.94" route="routecenter" type="3" waiting="0.00" lane="center_1" pos="5.17" speed="0.00" angle="90.00" x="404.75" y="139.77"/>
        <vehicle id="3_1" eclass="HBEFA3/PC_G_EU4" CO2="2624.72" CO="164.78" HC="0.81" NOx="1.20" PMx="0.07" fuel="1.13" electricity="0.00" noise="55.94" route="routecenter" type="3" waiting="0.00" lane="center_0" pos="129.14" speed="0.00" angle="90.00" x="529.28" y="136.47"/>
        <vehicle id="3_2" eclass="HBEFA3/PC_G_EU4" CO2="2624.72" CO="164.78" HC="0.81" NOx="1.20" PMx="0.07" fuel="1.13" electricity="0.00" noise="55.94" route="routecenter" type="3" waiting="0.00" lane="center_1" pos="130.06" speed="0.00" angle="90.00" x="530.19" y="139.77"/>
        <vehicle id="3_3" eclass="HBEFA3/PC_G_EU4" CO2="2624.72" CO="164.78" HC="0.81" NOx="1.20" PMx="0.07" fuel="1.13" electricity="0.00" noise="55.94" route="routemerge" type="3" waiting="0.00" lane="merge_0" pos="46.10" speed="0.00" angle="45.00" x="359.57" y="98.65"/>
        <vehicle id="3_4" eclass="HBEFA3/PC_G_EU4" CO2="2624.72" CO="164.78" HC="0.81" NOx="1.20" PMx="0.07" fuel="1.13" electricity="0.00" noise="55.94" route="routediverge" type="3" waiting="0.00" lane="diverge_0" pos="66.25" speed="0.00" angle="135.00" x="650.75" y="88.34"/>
        <vehicle id="4_0" eclass="HBEFA3/PC_G_EU4" CO2="2624.72" CO="164.78" HC="0.81" NOx="1.20" PMx="0.07" fuel="1.13" electricity="0.00" noise="55.94" route="routediverge" type="4" waiting="0.00" lane="diverge_0" pos="187.57" speed="0.00" angle="135.00" x="731.93" y="7.15"/>
        <vehicle id="4_1" eclass="HBEFA3/PC_G_EU4" CO2="2624.72" CO="164.78" HC="0.81" NOx="1.20" PMx="0.07" fuel="1.13" electricity="0.00" noise="55.94" route="routeleft" type="4" waiting="0.00" lane="left_0" pos="105.15" speed="0.00" angle="90.00" x="202.35" y="136.47"/>
        <vehicle id="4_2" eclass="HBEFA3/PC_G_EU4" CO2="2624.72" CO="164.78" HC="0.81" NOx="1.20" PMx="0.07" fuel="1.13" electricity="0.00" noise="55.94" route="routeleft" type="4" waiting="0.00" lane="left_1" pos="119.79" speed="0.00" angle="90.00" x="216.60" y="139.77"/>
        <vehicle id="4_3" eclass="HBEFA3/PC_G_EU4" CO2="2624.72" CO="164.78" HC="0.81" NOx="1.20" PMx="0.07" fuel="1.13" electricity="0.00" noise="55.94" route="routeleft" type="4" waiting="0.00" lane="left_0" pos="221.28" speed="0.00" angle="90.00" x="315.39" y="136.47"/>
        <vehicle id="4_4" eclass="HBEFA3/PC_G_EU4" CO2="2624.72" CO="164.78" HC="0.81" NOx="1.20" PMx="0.07" fuel="1.13" electricity="0.00" noise="55.94" route="routeleft" type="4" waiting="0.00" lane="left_1" pos="223.24" speed="0.00" angle="90.00" x="317.31" y="139.77"/>
    </timestep>
    <timestep time="0.40">
        <vehicle id="1_0" eclass="HBEFA3/PC_G_EU4" CO2="2635.37" CO="162.31" HC="0.80" NOx="1.21" PMx="0.07" fuel="1.13" electricity="0.00" noise="59.35" route="routeinflow_merge" type="1" waiting="0.00" lane="inflow_merge_0" pos="0.03" speed="0.15" angle="45.00" x="259.77" y="-1.15"/>
        <vehicle id="1_1" eclass="HBEFA3/PC_G_EU4" CO2="2643.70" CO="162.01" HC="0.80" NOx="1.21" PMx="0.07" fuel="1.14" electricity="0.00" noise="59.96" route="!1_1!var#1" type="1" waiting="0.00" lane="inflow_highway_0" pos="25.25" speed="0.18" angle="90.00" x="25.25" y="136.47"/>
        <vehicle id="1_2" eclass="HBEFA3/PC_G_EU4" CO2="2651.22" CO="161.80" HC="0.80" NOx="1.21" PMx="0.07" fuel="1.14" electricity="0.00" noise="60.41" route="!1_2!var#1" type="1" waiting="0.00" lane="inflow_highway_1" pos="25.79" speed="0.20" angle="90.00" x="25.79" y="139.77"/>
        <vehicle id="1_3" eclass="HBEFA3/PC_G_EU4" CO2="2645.52" CO="161.95" HC="0.80" NOx="1.21" PMx="0.07" fuel="1.14" electricity="0.00" noise="60.07" route="routeright" type="1" waiting="0.00" lane="right_0" pos="46.04" speed="0.18" angle="90.00" x="653.10" y="136.47"/>
        <vehicle id="1_4" eclass="HBEFA3/PC_G_EU4" CO2="2631.38" CO="162.51" HC="0.80" NOx="1.20" PMx="0.07" fuel="1.13" electricity="0.00" noise="58.99" route="routeright" type="1" waiting="0.00" lane="right_1" pos="44.51" speed="0.14" angle="90.00" x="651.60" y="139.77"/>
        <vehicle id="2_0" eclass="HBEFA3/PC_G_EU4" CO2="2647.86" CO="161.89" HC="0.80" NOx="1.21" PMx="0.07" fuel="1.14" electricity="0.00" noise="60.22" route="routeright" type="2" waiting="0.00" lane="right_0" pos="169.29" speed="0.19" angle="90.00" x="773.90" y="136.47"/>
        <vehicle id="2_1" eclass="HBEFA3/PC_G_EU4" CO2="2651.22" CO="161.80" HC="0.80" NOx="1.21" PMx="0.07" fuel="1.14" electricity="0.00" noise="60.41" route="routeright" type="2" waiting="0.00" lane="right_1" pos="160.01" speed="0.20" angle="90.00" x="764.80" y="139.77"/>
        <vehicle id="2_2" eclass="HBEFA3/PC_G_EU4" CO2="2635.43" CO="162.31" HC="0.80" NOx="1.21" PMx="0.07" fuel="1.13" electricity="0.00" noise="59.35" route="routeright" type="2" waiting="0.00" lane="right_0" pos="291.54" speed="0.15" angle="90.00" x="893.70" y="136.47"/>
        <vehicle id="2_3" eclass="HBEFA3/PC_G_EU4" CO2="2651.22" CO="161.80" HC="0.80" NOx="1.21" PMx="0.07" fuel="1.14" electricity="0.00" noise="60.41" route="routeright" type="2" waiting="0.00" lane="right_1" pos="278.97" speed="0.20" angle="90.00" x="881.38" y="139.77"/>
        <vehicle id="2_4" eclass="HBEFA3/PC_G_EU4" CO2="2644.06" CO="162.00" HC="0.80" NOx="1.21" PMx="0.07" fuel="1.14" electricity="0.00" noise="59.98" route="routecenter" type="2" waiting="0.00" lane="center_0" pos="0.04" speed="0.18" angle="65.48" x="399.59" y="136.47"/>
        <vehicle id="3_0" eclass="HBEFA3/PC_G_EU4" CO2="2632.67" CO="162.44" HC="0.80" NOx="1.20" PMx="0.07" fuel="1.13" electricity="0.00" noise="59.11" route="routecenter" type="3" waiting="0.00" lane="center_1" pos="5.20" speed="0.14" angle="90.00" x="404.78" y="139.77"/>
        <vehicle id="3_1" eclass="HBEFA3/PC_G_EU4" CO2="2651.22" CO="161.80" HC="0.80" NOx="1.21" PMx="0.07" fuel="1.14" electricity="0.00" noise="60.41" route="routecenter" type="3" waiting="0.00" lane="center_0" pos="129.18" speed="0.20" angle="90.00" x="529.32" y="136.47"/>
        <vehicle id="3_2" eclass="HBEFA3/PC_G_EU4" CO2="2651.22" CO="161.80" HC="0.80" NOx="1.21" PMx="0.07" fuel="1.14" electricity="0.00" noise="60.41" route="routecenter" type="3" waiting="0.00" lane="center_1" pos="130.10" speed="0.20" angle="90.00" x="530.23" y="139.77"/>
        <vehicle id="3_3" eclass="HBEFA3/PC_G_EU4" CO2="2651.22" CO="161.80" HC="0.80" NOx="1.21" PMx="0.07" fuel="1.14" electricity="0.00" noise="60.41" route="routemerge" type="3" waiting="0.00" lane="merge_0" pos="46.14" speed="0.20" angle="45.00" x="359.59" y="98.68"/>
        <vehicle id="3_4" eclass="HBEFA3/PC_G_EU4" CO2="2634.41" CO="162.36" HC="0.80" NOx="1.20" PMx="0.07" fuel="1.13" electricity="0.00" noise="59.27" route="routediverge" type="3" waiting="0.00" lane="diverge_0" pos="66.28" speed="0.15" angle="135.00" x="650.77" y="88.32"/>
        <vehicle id="4_0" eclass="HBEFA3/PC_G_EU4" CO2="2651.22" CO="161.80" HC="0.80" NOx="1.21" PMx="0.07" fuel="1.14" electricity="0.00" noise="60.41" route="routediverge" type="4" waiting="0.00" lane="diverge_0" pos="187.61" speed="0.20" angle="135.00" x="731.96" y="7.12"/>
        <vehicle id="4_1" eclass="HBEFA3/PC_G_EU4" CO2="2651.22" CO="161.80" HC="0.80" NOx="1.21" PMx="0.07" fuel="1.14" electricity="0.00" noise="60.41" route="routeleft" type="4" waiting="0.00" lane="left_0" pos="105.19" speed="0.20" angle="90.00" x="202.39" y="136.47"/>
        <vehicle id="4_2" eclass="HBEFA3/PC_G_EU4" CO2="2646.01" CO="161.94" HC="0.80" NOx="1.21" PMx="0.07" fuel="1.14" electricity="0.00" noise="60.11" route="routeleft" type="4" waiting="0.00" lane="left_1" pos="119.82" speed="0.19" angle="90.00" x="216.64" y="139.77"/>
        <vehicle id="4_3" eclass="HBEFA3/PC_G_EU4" CO2="2651.22" CO="161.80" HC="0.80" NOx="1.21" PMx="0.07" fuel="1.14" electricity="0.00" noise="60.41" route="routeleft" type="4" waiting="0.00" lane="left_0" pos="221.32" speed="0.20" angle="90.00" x="315.43" y="136.47"/>
        <vehicle id="4_4" eclass="HBEFA3/PC_G_EU4" CO2="2651.22" CO="161.80" HC="0.80" NOx="1.21" PMx="0.07" fuel="1.14" electricity="0.00" noise="60.41" route="routeleft" type="4" waiting="0.00" lane="left_1" pos="223.28" speed="0.20" angle="90.00" x="317.35" y="139.77"/>
    </timestep>
    <timestep time="0.60">
        <vehicle id="1_0" eclass="HBEFA3/PC_G_EU4" CO2="2654.55" CO="159.76" HC="0.79" NOx="1.21" PMx="0.06" fuel="1.14" electricity="0.00" noise="59.78" route="routeinflow_merge" type="1" waiting="0.00" lane="inflow_merge_0" pos="0.09" speed="0.32" angle="45.00" x="259.82" y="-1.10"/>
        <vehicle id="1_1" eclass="HBEFA3/PC_G_EU4" CO2="2675.54" CO="159.18" HC="0.79" NOx="1.22" PMx="0.07" fuel="1.15" electricity="0.00" noise="60.48" route="!1_1!var#1" type="1" waiting="0.00" lane="inflow_highway_0" pos="25.33" speed="0.38" angle="90.00" x="25.33" y="136.47"/>
        <vehicle id="1_2" eclass="HBEFA3/PC_G_EU4" CO2="2678.34" CO="158.88" HC="0.79" NOx="1.22" PMx="0.07" fuel="1.15" electricity="0.00" noise="60.49" route="!1_2!var#1" type="1" waiting="0.00" lane="inflow_highway_1" pos="25.87" speed="0.40" angle="90.00" x="25.87" y="139.77"/>
        <vehicle id="1_3" eclass="HBEFA3/PC_G_EU4" CO2="2666.43" CO="159.17" HC="0.79" NOx="1.21" PMx="0.07" fuel="1.15" electricity="0.00" noise="60.13" route="routeright" type="1" waiting="0.00" lane="right_0" pos="46.12" speed="0.37" angle="90.00" x="653.18" y="136.47"/>
        <vehicle id="1_4" eclass="HBEFA3/PC_G_EU4" CO2="2656.20" CO="159.96" HC="0.79" NOx="1.21" PMx="0.07" fuel="1.14" electricity="0.00" noise="59.91" route="routeright" type="1" waiting="0.00" lane="right_1" pos="44.57" speed="0.31" angle="90.00" x="651.66" y="139.77"/>
        <vehicle id="2_0" eclass="HBEFA3/PC_G_EU4" CO2="2677.14" CO="159.01" HC="0.79" NOx="1.22" PMx="0.07" fuel="1.15" electricity="0.00" noise="60.49" route="routeright" type="2" waiting="0.00" lane="right_0" pos="169.37" speed="0.39" angle="90.00" x="773.97" y="136.47"/>
        <vehicle id="2_1" eclass="HBEFA3/PC_G_EU4" CO2="2652.22" CO="159.09" HC="0.79" NOx="1.21" PMx="0.06" fuel="1.14" electricity="0.00" noise="59.52" route="routeright" type="2" waiting="0.00" lane="right_1" pos="160.08" speed="0.36" angle="90.00" x="764.87" y="139.77"/>
        <vehicle id="2_2" eclass="HBEFA3/PC_G_EU4" CO2="2665.61" CO="159.63" HC="0.79" NOx="1.21" PMx="0.07" fuel="1.15" electricity="0.00" noise="60.23" route="routeright" type="2" waiting="0.00" lane="right_0" pos="291.60" speed="0.34" angle="90.00" x="893.77" y="136.47"/>
        <vehicle id="2_3" eclass="HBEFA3/PC_G_EU4" CO2="2678.34" CO="158.88" HC="0.79" NOx="1.22" PMx="0.07" fuel="1.15" electricity="0.00" noise="60.49" route="routeright" type="2" waiting="0.00" lane="right_1" pos="279.05" speed="0.40" angle="90.00" x="881.46" y="139.77"/>
        <vehicle id="2_4" eclass="HBEFA3/PC_G_EU4" CO2="2675.69" CO="159.16" HC="0.79" NOx="1.22" PMx="0.07" fuel="1.15" electricity="0.00" noise="60.48" route="routecenter" type="2" waiting="0.00" lane="center_0" pos="0.11" speed="0.38" angle="66.21" x="399.66" y="136.47"/>
        <vehicle id="3_0" eclass="HBEFA3/PC_G_EU4" CO2="2649.81" CO="159.98" HC="0.79" NOx="1.21" PMx="0.06" fuel="1.14" electricity="0.00" noise="59.60" route="routecenter" type="3" waiting="0.00" lane="center_1" pos="5.26" speed="0.30" angle="90.00" x="404.84" y="139.77"/>
        <vehicle id="3_1" eclass="HBEFA3/PC_G_EU4" CO2="2641.15" CO="159.24" HC="0.79" NOx="1.20" PMx="0.06" fuel="1.14" electricity="0.00" noise="59.04" route="routecenter" type="3" waiting="0.00" lane="center_0" pos="129.25" speed="0.34" angle="90.00" x="529.38" y="136.47"/>
        <vehicle id="3_2" eclass="HBEFA3/PC_G_EU4" CO2="2654.54" CO="159.07" HC="0.79" NOx="1.21" PMx="0.06" fuel="1.14" electricity="0.00" noise="59.61" route="routecenter" type="3" waiting="0.00" lane="center_1" pos="130.17" speed="0.36" angle="90.00" x="530.30" y="139.77"/>
        <vehicle id="3_3" eclass="HBEFA3/PC_G_EU4" CO2="2673.74" CO="158.91" HC="0.79" NOx="1.22" PMx="0.07" fuel="1.15" electricity="0.00" noise="60.33" route="routemerge" type="3" waiting="0.00" lane="merge_0" pos="46.22" speed="0.39" angle="45.00" x="359.64" y="98.73"/>
        <vehicle id="3_4" eclass="HBEFA3/PC_G_EU4" CO2="2669.91" CO="159.64" HC="0.79" NOx="1.22" PMx="0.07" fuel="1.15" electricity="0.00" noise="60.42" route="routediverge" type="3" waiting="0.00" lane="diverge_0" pos="66.35" speed="0.35" angle="135.00" x="650.81" y="88.28"/>
        <vehicle id="4_0" eclass="HBEFA3/PC_G_EU4" CO2="2648.56" CO="159.14" HC="0.79" NOx="1.21" PMx="0.06" fuel="1.14" electricity="0.00" noise="59.37" route="routediverge" type="4" waiting="0.00" lane="diverge_0" pos="187.68" speed="0.35" angle="135.00" x="732.01" y="7.07"/>
        <vehicle id="4_1" eclass="HBEFA3/PC_G_EU4" CO2="2678.34" CO="158.88" HC="0.79" NOx="1.22" PMx="0.07" fuel="1.15" electricity="0.00" noise="60.49" route="routeleft" type="4" waiting="0.00" lane="left_0" pos="105.27" speed="0.40" angle="90.00" x="202.47" y="136.47"/>
        <vehicle id="4_2" eclass="HBEFA3/PC_G_EU4" CO2="2669.14" CO="159.13" HC="0.79" NOx="1.22" PMx="0.07" fuel="1.15" electricity="0.00" noise="60.22" route="routeleft" type="4" waiting="0.00" lane="left_1" pos="119.90" speed="0.37" angle="90.00" x="216.71" y="139.77"/>
        <vehicle id="4_3" eclass="HBEFA3/PC_G_EU4" CO2="2676.32" CO="158.89" HC="0.79" NOx="1.22" PMx="0.07" fuel="1.15" electricity="0.00" noise="60.42" route="routeleft" type="4" waiting="0.00" lane="left_0" pos="221.40" speed="0.40" angle="90.00" x="315.51" y="136.47"/>
        <vehicle id="4_4" eclass="HBEFA3/PC_G_EU4" CO2="2645.07" CO="159.18" HC="0.79" NOx="1.20" PMx="0.06" fuel="1.14" electricity="0.00" noise="59.21" route="routeleft" type="4" waiting="0.00" lane="left_1" pos="223.35" speed="0.34" angle="90.00" x="317.41" y="139.77"/>
    </timestep>
    <timestep time="0.80">
        <vehicle id="1_0" eclass="HBEFA3/PC_G_EU4" CO2="2682.18" CO="157.14" HC="0.78" NOx="1.22" PMx="0.06" fuel="1.15" electricity="0.00" noise="60.17" route="routeinflow_merge" type="1" waiting="0.00" lane="inflow_merge_0" pos="0.20" speed="0.50" angle="45.00" x="259.89" y="-1.03"/>
        <vehicle id="1_1" eclass="HBEFA3/PC_G_EU4" CO2="2703.23" CO="156.29" HC="0.77" NOx="1.23" PMx="0.06" fuel="1.16" electricity="0.00" noise="60.56" route="!1_1!var#1" type="1" waiting="0.00" lane="inflow_highway_0" pos="25.44" speed="0.58" angle="90.00" x="25.44" y="136.47"/>
        <vehicle id="1_2" eclass="HBEFA3/PC_G_EU4" CO2="2643.65" CO="156.02" HC="0.77" NOx="1.20" PMx="0.06" fuel="1.14" electricity="0.00" noise="58.87" route="!1_2!var#1" type="1" waiting="0.00" lane="inflow_highway_1" pos="25.97" speed="0.52" angle="90.00" x="25.97" y="139.77"/>
        <vehicle id="1_3" eclass="HBEFA3/PC_G_EU4" CO2="2648.23" CO="156.50" HC="0.77" NOx="1.20" PMx="0.06" fuel="1.14" electricity="0.00" noise="59.04" route="routeright" type="1" waiting="0.00" lane="right_0" pos="46.22" speed="0.50" angle="90.00" x="653.27" y="136.47"/>
        <vehicle id="1_4" eclass="HBEFA3/PC_G_EU4" CO2="2693.73" CO="157.27" HC="0.78" NOx="1.22" PMx="0.06" fuel="1.16" electricity="0.00" noise="60.53" route="routeright" type="1" waiting="0.00" lane="right_1" pos="44.67" speed="0.51" angle="90.00" x="651.76" y="139.77"/>
        <vehicle id="2_0" eclass="HBEFA3/PC_G_EU4" CO2="2672.02" CO="156.10" HC="0.77" NOx="1.21" PMx="0.06" fuel="1.15" electricity="0.00" noise="59.71" route="routeright" type="2" waiting="0.00" lane="right_0" pos="169.48" speed="0.55" angle="90.00" x="774.08" y="136.47"/>
        <vehicle id="2_1" eclass="HBEFA3/PC_G_EU4" CO2="2700.02" CO="156.62" HC="0.78" NOx="1.22" PMx="0.06" fuel="1.16" electricity="0.00" noise="60.55" route="routeright" type="2" waiting="0.00" lane="right_1" pos="160.19" speed="0.56" angle="90.00" x="764.98" y="139.77"/>
        <vehicle id="2_2" eclass="HBEFA3/PC_G_EU4" CO2="2664.01" CO="156.87" HC="0.78" NOx="1.21" PMx="0.06" fuel="1.15" electricity="0.00" noise="59.58" route="routeright" type="2" waiting="0.00" lane="right_0" pos="291.70" speed="0.50" angle="90.00" x="893.86" y="136.47"/>
        <vehicle id="2_3" eclass="HBEFA3/PC_G_EU4" CO2="2706.10" CO="156.00" HC="0.77" NOx="1.23" PMx="0.06" fuel="1.16" electricity="0.00" noise="60.57" route="routeright" type="2" waiting="0.00" lane="right_1" pos="279.17" speed="0.60" angle="90.00" x="881.58" y="139.77"/>
        <vehicle id="2_4" eclass="HBEFA3/PC_G_EU4" CO2="2690.41" CO="156.26" HC="0.77" NOx="1.22" PMx="0.06" fuel="1.16" electricity="0.00" noise="60.23" route="routecenter" type="2" waiting="0.00" lane="center_0" pos="0.23" speed="0.57" angle="67.30" x="399.78" y="136.47"/>
        <vehicle id="3_0" eclass="HBEFA3/PC_G_EU4" CO2="2640.26" CO="157.61" HC="0.78" NOx="1.20" PMx="0.06" fuel="1.14" electricity="0.00" noise="58.85" route="routecenter" type="3" waiting="0.00" lane="center_1" pos="5.35" speed="0.43" angle="90.00" x="404.92" y="139.77"/>
        <vehicle id="3_1" eclass="HBEFA3/PC_G_EU4" CO2="2697.03" CO="156.93" HC="0.78" NOx="1.22" PMx="0.06" fuel="1.16" electricity="0.00" noise="60.54" route="routecenter" type="3" waiting="0.00" lane="center_0" pos="129.36" speed="0.54" angle="90.00" x="529.49" y="136.47"/>
        <vehicle id="3_2" eclass="HBEFA3/PC_G_EU4" CO2="2693.70" CO="156.56" HC="0.78" NOx="1.22" PMx="0.06" fuel="1.16" electricity="0.00" noise="60.37" route="routecenter" type="3" waiting="0.00" lane="center_1" pos="130.28" speed="0.55" angle="90.00" x="530.41" y="139.77"/>
        <vehicle id="3_3" eclass="HBEFA3/PC_G_EU4" CO2="2705.10" CO="156.10" HC="0.77" NOx="1.23" PMx="0.06" fuel="1.16" electricity="0.00" noise="60.56" route="routemerge" type="3" waiting="0.00" lane="merge_0" pos="46.34" speed="0.59" angle="45.00" x="359.72" y="98.80"/>
        <vehicle id="3_4" eclass="HBEFA3/PC_G_EU4" CO2="2698.58" CO="156.77" HC="0.78" NOx="1.22" PMx="0.06" fuel="1.16" electricity="0.00" noise="60.55" route="routediverge" type="3" waiting="0.00" lane="diverge_0" pos="66.46" speed="0.55" angle="135.00" x="650.88" y="88.20"/>
        <vehicle id="4_0" eclass="HBEFA3/PC_G_EU4" CO2="2696.94" CO="156.72" HC="0.78" NOx="1.22" PMx="0.06" fuel="1.16" electricity="0.00" noise="60.49" route="routediverge" type="4" waiting="0.00" lane="diverge_0" pos="187.79" speed="0.55" angle="135.00" x="732.08" y="7.00"/>
        <vehicle id="4_1" eclass="HBEFA3/PC_G_EU4" CO2="2706.10" CO="156.00" HC="0.77" NOx="1.23" PMx="0.06" fuel="1.16" electricity="0.00" noise="60.57" route="routeleft" type="4" waiting="0.00" lane="left_0" pos="105.39" speed="0.60" angle="90.00" x="202.59" y="136.47"/>
        <vehicle id="4_2" eclass="HBEFA3/PC_G_EU4" CO2="2680.42" CO="156.35" HC="0.77" NOx="1.22" PMx="0.06" fuel="1.15" electricity="0.00" noise="59.98" route="routeleft" type="4" waiting="0.00" lane="left_1" pos="120.01" speed="0.55" angle="90.00" x="216.82" y="139.77"/>
        <vehicle id="4_3" eclass="HBEFA3/PC_G_EU4" CO2="2679.38" CO="156.02" HC="0.77" NOx="1.21" PMx="0.06" fuel="1.15" electricity="0.00" noise="59.90" route="routeleft" type="4" waiting="0.00" lane="left_0" pos="221.51" speed="0.57" angle="90.00" x="315.62" y="136.47"/>
        <vehicle id="4_4" eclass="HBEFA3/PC_G_EU4" CO2="2698.13" CO="156.81" HC="0.78" NOx="1.22" PMx="0.06" fuel="1.16" electricity="0.00" noise="60.54" route="routeleft" type="4" waiting="0.00" lane="left_1" pos="223.46" speed="0.54" angle="90.00" x="317.52" y="139.77"/>
    </timestep>
    <timestep time="1.00">
        <vehicle id="1_0" eclass="HBEFA3/PC_G_EU4" CO2="2707.17" CO="154.45" HC="0.77" NOx="1.22" PMx="0.06" fuel="1.16" electricity="0.00" noise="60.31" route="routeinflow_merge" type="1" waiting="0.00" lane="inflow_merge_0" pos="0.33" speed="0.69" angle="45.00" x="259.99" y="-0.93"/>