<?xml version="1.0" encoding="UTF-8"?>

<!-- generated on Mon Nov 19 20:56:39 2018 by SUMO gui Version b'v0_31_0-812-g1d4338ab80'
<?xml version="1.0" encoding="UTF-8"?>

<configuration xmlns:xsi="http://www.w3.org/2001/XMLSchema-instance" xsi:noNamespaceSchemaLocation="http://sumo.dlr.de/xsd/sumoConfiguration.xsd">

    <input>
        <net-file value="/Users/barryfan/flow/flow/scenarios/debug/cfg/merge-baseline_20181119-2056381542689798.322735.net.xml"/>
        <route-files value="/Users/barryfan/flow/flow/scenarios/debug/cfg/merge-baseline_20181119-2056381542689798.322735.rou.xml"/>
        <additional-files value="/Users/barryfan/flow/flow/scenarios/debug/cfg/merge-baseline_20181119-2056381542689798.322735.add.xml"/>
    </input>

    <output>
        <emission-output value="./data/merge-baseline_20181119-2056381542689798.322735-emission.xml"/>
    </output>

    <time>
        <begin value="0"/>
        <step-length value="0.2"/>
    </time>

    <processing>
        <lateral-resolution value="0.2"/>
        <time-to-teleport value="-1"/>
    </processing>

    <report>
        <no-step-log value="true"/>
    </report>

    <traci_server>
        <remote-port value="63392"/>
    </traci_server>

    <gui_only>
        <gui-settings-file value="/Users/barryfan/flow/flow/scenarios/debug/cfg/merge-baseline_20181119-2056381542689798.322735.gui.cfg"/>
        <tracker-interval value="0.2"/>
    </gui_only>

</configuration>
-->

<emission-export xmlns:xsi="http://www.w3.org/2001/XMLSchema-instance" xsi:noNamespaceSchemaLocation="http://sumo.dlr.de/xsd/emission_file.xsd">
    <timestep time="0.00">
        <vehicle id="1_0" eclass="HBEFA3/PC_G_EU4" CO2="2624.72" CO="164.78" HC="0.81" NOx="1.20" PMx="0.07" fuel="1.13" electricity="0.00" noise="55.94" route="routeinflow_merge" type="1" waiting="0.00" lane="inflow_merge_0" pos="11.54" speed="0.00" angle="45.00" x="267.91" y="6.99"/>
        <vehicle id="1_1" eclass="HBEFA3/PC_G_EU4" CO2="2624.72" CO="164.78" HC="0.81" NOx="1.20" PMx="0.07" fuel="1.13" electricity="0.00" noise="55.94" route="routemerge" type="1" waiting="0.00" lane="merge_0" pos="23.65" speed="0.00" angle="45.00" x="345.39" y="84.47"/>
        <vehicle id="1_2" eclass="HBEFA3/PC_G_EU4" CO2="2624.72" CO="164.78" HC="0.81" NOx="1.20" PMx="0.07" fuel="1.13" electricity="0.00" noise="55.94" route="routediverge" type="1" waiting="0.00" lane="diverge_0" pos="41.64" speed="0.00" angle="135.00" x="634.28" y="104.81"/>
        <vehicle id="1_3" eclass="HBEFA3/PC_G_EU4" CO2="2624.72" CO="164.78" HC="0.81" NOx="1.20" PMx="0.07" fuel="1.13" electricity="0.00" noise="55.94" route="routediverge" type="1" waiting="0.00" lane="diverge_0" pos="156.94" speed="0.00" angle="135.00" x="711.44" y="27.65"/>
        <vehicle id="1_4" eclass="HBEFA3/PC_G_EU4" CO2="2624.72" CO="164.78" HC="0.81" NOx="1.20" PMx="0.07" fuel="1.13" electricity="0.00" noise="55.94" route="routeright" type="1" waiting="0.00" lane="right_0" pos="90.64" speed="0.00" angle="90.00" x="696.81" y="136.47"/>
        <vehicle id="2_0" eclass="HBEFA3/PC_G_EU4" CO2="2624.72" CO="164.78" HC="0.81" NOx="1.20" PMx="0.07" fuel="1.13" electricity="0.00" noise="55.94" route="routeright" type="2" waiting="0.00" lane="right_1" pos="80.57" speed="0.00" angle="90.00" x="686.94" y="139.77"/>
        <vehicle id="2_1" eclass="HBEFA3/PC_G_EU4" CO2="2624.72" CO="164.78" HC="0.81" NOx="1.20" PMx="0.07" fuel="1.13" electricity="0.00" noise="55.94" route="routeright" type="2" waiting="0.00" lane="right_0" pos="201.14" speed="0.00" angle="90.00" x="805.11" y="136.47"/>
        <vehicle id="2_2" eclass="HBEFA3/PC_G_EU4" CO2="2624.72" CO="164.78" HC="0.81" NOx="1.20" PMx="0.07" fuel="1.13" electricity="0.00" noise="55.94" route="routeright" type="2" waiting="0.00" lane="right_1" pos="204.97" speed="0.00" angle="90.00" x="808.86" y="139.77"/>
        <vehicle id="2_3" eclass="HBEFA3/PC_G_EU4" CO2="2624.72" CO="164.78" HC="0.81" NOx="1.20" PMx="0.07" fuel="1.13" electricity="0.00" noise="55.94" route="routeright" type="2" waiting="0.00" lane="right_0" pos="317.87" speed="0.00" angle="90.00" x="919.51" y="136.47"/>
        <vehicle id="2_4" eclass="HBEFA3/PC_G_EU4" CO2="2624.72" CO="164.78" HC="0.81" NOx="1.20" PMx="0.07" fuel="1.13" electricity="0.00" noise="55.94" route="routeright" type="2" waiting="0.00" lane="right_1" pos="332.96" speed="0.00" angle="90.00" x="934.30" y="139.77"/>
        <vehicle id="3_0" eclass="HBEFA3/PC_G_EU4" CO2="2624.72" CO="164.78" HC="0.81" NOx="1.20" PMx="0.07" fuel="1.13" electricity="0.00" noise="55.94" route="routeleft" type="3" waiting="0.00" lane="left_0" pos="41.30" speed="0.00" angle="90.00" x="140.21" y="136.47"/>
        <vehicle id="3_1" eclass="HBEFA3/PC_G_EU4" CO2="2624.72" CO="164.78" HC="0.81" NOx="1.20" PMx="0.07" fuel="1.13" electricity="0.00" noise="55.94" route="routeleft" type="3" waiting="0.00" lane="left_1" pos="33.40" speed="0.00" angle="90.00" x="132.52" y="139.77"/>
        <vehicle id="3_2" eclass="HBEFA3/PC_G_EU4" CO2="2624.72" CO="164.78" HC="0.81" NOx="1.20" PMx="0.07" fuel="1.13" electricity="0.00" noise="55.94" route="routeleft" type="3" waiting="0.00" lane="left_0" pos="163.11" speed="0.00" angle="90.00" x="258.77" y="136.47"/>
        <vehicle id="3_3" eclass="HBEFA3/PC_G_EU4" CO2="2624.72" CO="164.78" HC="0.81" NOx="1.20" PMx="0.07" fuel="1.13" electricity="0.00" noise="55.94" route="routeleft" type="3" waiting="0.00" lane="left_1" pos="160.23" speed="0.00" angle="90.00" x="255.97" y="139.77"/>
        <vehicle id="3_4" eclass="HBEFA3/PC_G_EU4" CO2="2624.72" CO="164.78" HC="0.81" NOx="1.20" PMx="0.07" fuel="1.13" electricity="0.00" noise="55.94" route="routeleft" type="3" waiting="0.00" lane="left_0" pos="278.07" speed="0.00" angle="90.00" x="370.67" y="136.47"/>
        <vehicle id="4_0" eclass="HBEFA3/PC_G_EU4" CO2="2624.72" CO="164.78" HC="0.81" NOx="1.20" PMx="0.07" fuel="1.13" electricity="0.00" noise="55.94" route="routeleft" type="4" waiting="0.00" lane="left_1" pos="281.83" speed="0.00" angle="90.00" x="374.33" y="139.77"/>
        <vehicle id="4_1" eclass="HBEFA3/PC_G_EU4" CO2="2624.72" CO="164.78" HC="0.81" NOx="1.20" PMx="0.07" fuel="1.13" electricity="0.00" noise="55.94" route="routecenter" type="4" waiting="0.00" lane="center_0" pos="95.34" speed="0.00" angle="90.00" x="495.32" y="136.47"/>
        <vehicle id="4_2" eclass="HBEFA3/PC_G_EU4" CO2="2624.72" CO="164.78" HC="0.81" NOx="1.20" PMx="0.07" fuel="1.13" electricity="0.00" noise="55.94" route="routecenter" type="4" waiting="0.00" lane="center_1" pos="110.10" speed="0.00" angle="90.00" x="510.15" y="139.77"/>
        <vehicle id="4_3" eclass="HBEFA3/PC_G_EU4" CO2="2624.72" CO="164.78" HC="0.81" NOx="1.20" PMx="0.07" fuel="1.13" electricity="0.00" noise="55.94" route="routeinflow_highway" type="4" waiting="0.00" lane="inflow_highway_0" pos="27.96" speed="0.00" angle="90.00" x="27.96" y="136.47"/>
        <vehicle id="4_4" eclass="HBEFA3/PC_G_EU4" CO2="2624.72" CO="164.78" HC="0.81" NOx="1.20" PMx="0.07" fuel="1.13" electricity="0.00" noise="55.94" route="routeinflow_highway" type="4" waiting="0.00" lane="inflow_highway_1" pos="25.10" speed="0.00" angle="90.00" x="25.10" y="139.77"/>
    </timestep>
    <timestep time="0.20">
        <vehicle id="1_0" eclass="HBEFA3/PC_G_EU4" CO2="2624.72" CO="164.78" HC="0.81" NOx="1.20" PMx="0.07" fuel="1.13" electricity="0.00" noise="55.94" route="routeinflow_merge" type="1" waiting="0.00" lane="inflow_merge_0" pos="11.54" speed="0.00" angle="45.00" x="267.91" y="6.99"/>
        <vehicle id="1_1" eclass="HBEFA3/PC_G_EU4" CO2="2624.72" CO="164.78" HC="0.81" NOx="1.20" PMx="0.07" fuel="1.13" electricity="0.00" noise="55.94" route="routemerge" type="1" waiting="0.00" lane="merge_0" pos="23.65" speed="0.00" angle="45.00" x="345.39" y="84.47"/>
        <vehicle id="1_2" eclass="HBEFA3/PC_G_EU4" CO2="2624.72" CO="164.78" HC="0.81" NOx="1.20" PMx="0.07" fuel="1.13" electricity="0.00" noise="55.94" route="routediverge" type="1" waiting="0.00" lane="diverge_0" pos="41.64" speed="0.00" angle="135.00" x="634.28" y="104.81"/>
        <vehicle id="1_3" eclass="HBEFA3/PC_G_EU4" CO2="2624.72" CO="164.78" HC="0.81" NOx="1.20" PMx="0.07" fuel="1.13" electricity="0.00" noise="55.94" route="routediverge" type="1" waiting="0.00" lane="diverge_0" pos="156.94" speed="0.00" angle="135.00" x="711.44" y="27.65"/>
        <vehicle id="1_4" eclass="HBEFA3/PC_G_EU4" CO2="2624.72" CO="164.78" HC="0.81" NOx="1.20" PMx="0.07" fuel="1.13" electricity="0.00" noise="55.94" route="routeright" type="1" waiting="0.00" lane="right_0" pos="90.64" speed="0.00" angle="90.00" x="696.81" y="136.47"/>
        <vehicle id="2_0" eclass="HBEFA3/PC_G_EU4" CO2="2624.72" CO="164.78" HC="0.81" NOx="1.20" PMx="0.07" fuel="1.13" electricity="0.00" noise="55.94" route="routeright" type="2" waiting="0.00" lane="right_1" pos="80.57" speed="0.00" angle="90.00" x="686.94" y="139.77"/>
        <vehicle id="2_1" eclass="HBEFA3/PC_G_EU4" CO2="2624.72" CO="164.78" HC="0.81" NOx="1.20" PMx="0.07" fuel="1.13" electricity="0.00" noise="55.94" route="routeright" type="2" waiting="0.00" lane="right_0" pos="201.14" speed="0.00" angle="90.00" x="805.11" y="136.47"/>
        <vehicle id="2_2" eclass="HBEFA3/PC_G_EU4" CO2="2624.72" CO="164.78" HC="0.81" NOx="1.20" PMx="0.07" fuel="1.13" electricity="0.00" noise="55.94" route="routeright" type="2" waiting="0.00" lane="right_1" pos="204.97" speed="0.00" angle="90.00" x="808.86" y="139.77"/>
        <vehicle id="2_3" eclass="HBEFA3/PC_G_EU4" CO2="2624.72" CO="164.78" HC="0.81" NOx="1.20" PMx="0.07" fuel="1.13" electricity="0.00" noise="55.94" route="routeright" type="2" waiting="0.00" lane="right_0" pos="317.87" speed="0.00" angle="90.00" x="919.51" y="136.47"/>
        <vehicle id="2_4" eclass="HBEFA3/PC_G_EU4" CO2="2624.72" CO="164.78" HC="0.81" NOx="1.20" PMx="0.07" fuel="1.13" electricity="0.00" noise="55.94" route="routeright" type="2" waiting="0.00" lane="right_1" pos="332.96" speed="0.00" angle="90.00" x="934.30" y="139.77"/>
        <vehicle id="3_0" eclass="HBEFA3/PC_G_EU4" CO2="2624.72" CO="164.78" HC="0.81" NOx="1.20" PMx="0.07" fuel="1.13" electricity="0.00" noise="55.94" route="routeleft" type="3" waiting="0.00" lane="left_0" pos="41.30" speed="0.00" angle="90.00" x="140.21" y="136.47"/>
        <vehicle id="3_1" eclass="HBEFA3/PC_G_EU4" CO2="2624.72" CO="164.78" HC="0.81" NOx="1.20" PMx="0.07" fuel="1.13" electricity="0.00" noise="55.94" route="routeleft" type="3" waiting="0.00" lane="left_1" pos="33.40" speed="0.00" angle="90.00" x="132.52" y="139.77"/>
        <vehicle id="3_2" eclass="HBEFA3/PC_G_EU4" CO2="2624.72" CO="164.78" HC="0.81" NOx="1.20" PMx="0.07" fuel="1.13" electricity="0.00" noise="55.94" route="routeleft" type="3" waiting="0.00" lane="left_0" pos="163.11" speed="0.00" angle="90.00" x="258.77" y="136.47"/>
        <vehicle id="3_3" eclass="HBEFA3/PC_G_EU4" CO2="2624.72" CO="164.78" HC="0.81" NOx="1.20" PMx="0.07" fuel="1.13" electricity="0.00" noise="55.94" route="routeleft" type="3" waiting="0.00" lane="left_1" pos="160.23" speed="0.00" angle="90.00" x="255.97" y="139.77"/>
        <vehicle id="3_4" eclass="HBEFA3/PC_G_EU4" CO2="2624.72" CO="164.78" HC="0.81" NOx="1.20" PMx="0.07" fuel="1.13" electricity="0.00" noise="55.94" route="routeleft" type="3" waiting="0.00" lane="left_0" pos="278.07" speed="0.00" angle="90.00" x="370.67" y="136.47"/>
        <vehicle id="4_0" eclass="HBEFA3/PC_G_EU4" CO2="2624.72" CO="164.78" HC="0.81" NOx="1.20" PMx="0.07" fuel="1.13" electricity="0.00" noise="55.94" route="routeleft" type="4" waiting="0.00" lane="left_1" pos="281.83" speed="0.00" angle="90.00" x="374.33" y="139.77"/>
        <vehicle id="4_1" eclass="HBEFA3/PC_G_EU4" CO2="2624.72" CO="164.78" HC="0.81" NOx="1.20" PMx="0.07" fuel="1.13" electricity="0.00" noise="55.94" route="routecenter" type="4" waiting="0.00" lane="center_0" pos="95.34" speed="0.00" angle="90.00" x="495.32" y="136.47"/>
        <vehicle id="4_2" eclass="HBEFA3/PC_G_EU4" CO2="2624.72" CO="164.78" HC="0.81" NOx="1.20" PMx="0.07" fuel="1.13" electricity="0.00" noise="55.94" route="routecenter" type="4" waiting="0.00" lane="center_1" pos="110.10" speed="0.00" angle="90.00" x="510.15" y="139.77"/>
        <vehicle id="4_3" eclass="HBEFA3/PC_G_EU4" CO2="2624.72" CO="164.78" HC="0.81" NOx="1.20" PMx="0.07" fuel="1.13" electricity="0.00" noise="55.94" route="routeinflow_highway" type="4" waiting="0.00" lane="inflow_highway_0" pos="27.96" speed="0.00" angle="90.00" x="27.96" y="136.47"/>
        <vehicle id="4_4" eclass="HBEFA3/PC_G_EU4" CO2="2624.72" CO="164.78" HC="0.81" NOx="1.20" PMx="0.07" fuel="1.13" electricity="0.00" noise="55.94" route="routeinflow_highway" type="4" waiting="0.00" lane="inflow_highway_1" pos="25.10" speed="0.00" angle="90.00" x="25.10" y="139.77"/>
    </timestep>
    <timestep time="0.40">
        <vehicle id="1_0" eclass="HBEFA3/PC_G_EU4" CO2="2651.22" CO="161.80" HC="0.80" NOx="1.21" PMx="0.07" fuel="1.14" electricity="0.00" noise="60.41" route="routeinflow_merge" type="1" waiting="0.00" lane="inflow_merge_0" pos="11.58" speed="0.20" angle="45.00" x="267.94" y="7.02"/>
        <vehicle id="1_1" eclass="HBEFA3/PC_G_EU4" CO2="2651.22" CO="161.80" HC="0.80" NOx="1.21" PMx="0.07" fuel="1.14" electricity="0.00" noise="60.41" route="routemerge" type="1" waiting="0.00" lane="merge_0" pos="23.69" speed="0.20" angle="45.00" x="345.42" y="84.50"/>
        <vehicle id="1_2" eclass="HBEFA3/PC_G_EU4" CO2="2651.22" CO="161.80" HC="0.80" NOx="1.21" PMx="0.07" fuel="1.14" electricity="0.00" noise="60.41" route="routediverge" type="1" waiting="0.00" lane="diverge_0" pos="41.68" speed="0.20" angle="135.00" x="634.30" y="104.78"/>
        <vehicle id="1_3" eclass="HBEFA3/PC_G_EU4" CO2="2638.92" CO="162.17" HC="0.80" NOx="1.21" PMx="0.07" fuel="1.13" electricity="0.00" noise="59.62" route="routediverge" type="1" waiting="0.00" lane="diverge_0" pos="156.97" speed="0.16" angle="135.00" x="711.46" y="27.62"/>
        <vehicle id="1_4" eclass="HBEFA3/PC_G_EU4" CO2="2651.22" CO="161.80" HC="0.80" NOx="1.21" PMx="0.07" fuel="1.14" electricity="0.00" noise="60.41" route="routeright" type="1" waiting="0.00" lane="right_0" pos="90.68" speed="0.20" angle="90.00" x="696.85" y="136.47"/>
        <vehicle id="2_0" eclass="HBEFA3/PC_G_EU4" CO2="2629.15" CO="162.65" HC="0.80" NOx="1.20" PMx="0.07" fuel="1.13" electricity="0.00" noise="58.75" route="routeright" type="2" waiting="0.00" lane="right_1" pos="80.59" speed="0.13" angle="90.00" x="686.96" y="139.77"/>
        <vehicle id="2_1" eclass="HBEFA3/PC_G_EU4" CO2="2651.22" CO="161.80" HC="0.80" NOx="1.21" PMx="0.07" fuel="1.14" electricity="0.00" noise="60.41" route="routeright" type="2" waiting="0.00" lane="right_0" pos="201.18" speed="0.20" angle="90.00" x="805.15" y="136.47"/>
        <vehicle id="2_2" eclass="HBEFA3/PC_G_EU4" CO2="2649.75" CO="161.84" HC="0.80" NOx="1.21" PMx="0.07" fuel="1.14" electricity="0.00" noise="60.33" route="routeright" type="2" waiting="0.00" lane="right_1" pos="205.01" speed="0.20" angle="90.00" x="808.90" y="139.77"/>
        <vehicle id="2_3" eclass="HBEFA3/PC_G_EU4" CO2="2651.22" CO="161.80" HC="0.80" NOx="1.21" PMx="0.07" fuel="1.14" electricity="0.00" noise="60.41" route="routeright" type="2" waiting="0.00" lane="right_0" pos="317.91" speed="0.20" angle="90.00" x="919.55" y="136.47"/>
        <vehicle id="2_4" eclass="HBEFA3/PC_G_EU4" CO2="2648.52" CO="161.87" HC="0.80" NOx="1.21" PMx="0.07" fuel="1.14" electricity="0.00" noise="60.26" route="routeright" type="2" waiting="0.00" lane="right_1" pos="333.00" speed="0.19" angle="90.00" x="934.33" y="139.77"/>
        <vehicle id="3_0" eclass="HBEFA3/PC_G_EU4" CO2="2649.01" CO="161.86" HC="0.80" NOx="1.21" PMx="0.07" fuel="1.14" electricity="0.00" noise="60.29" route="routeleft" type="3" waiting="0.00" lane="left_0" pos="41.34" speed="0.19" angle="90.00" x="140.24" y="136.47"/>
        <vehicle id="3_1" eclass="HBEFA3/PC_G_EU4" CO2="2651.22" CO="161.80" HC="0.80" NOx="1.21" PMx="0.07" fuel="1.14" electricity="0.00" noise="60.41" route="routeleft" type="3" waiting="0.00" lane="left_1" pos="33.44" speed="0.20" angle="90.00" x="132.56" y="139.77"/>
        <vehicle id="3_2" eclass="HBEFA3/PC_G_EU4" CO2="2628.51" CO="162.70" HC="0.80" NOx="1.20" PMx="0.07" fuel="1.13" electricity="0.00" noise="58.68" route="routeleft" type="3" waiting="0.00" lane="left_0" pos="163.13" speed="0.12" angle="90.00" x="258.79" y="136.47"/>
        <vehicle id="3_3" eclass="HBEFA3/PC_G_EU4" CO2="2626.01" CO="162.90" HC="0.80" NOx="1.20" PMx="0.07" fuel="1.13" electricity="0.00" noise="58.36" route="routeleft" type="3" waiting="0.00" lane="left_1" pos="160.25" speed="0.11" angle="90.00" x="255.99" y="139.77"/>
        <vehicle id="3_4" eclass="HBEFA3/PC_G_EU4" CO2="2645.07" CO="161.97" HC="0.80" NOx="1.21" PMx="0.07" fuel="1.14" electricity="0.00" noise="60.05" route="routeleft" type="3" waiting="0.00" lane="left_0" pos="278.10" speed="0.18" angle="90.00" x="370.71" y="136.47"/>
        <vehicle id="4_0" eclass="HBEFA3/PC_G_EU4" CO2="2638.97" CO="162.17" HC="0.80" NOx="1.21" PMx="0.07" fuel="1.13" electricity="0.00" noise="59.63" route="routeleft" type="4" waiting="0.00" lane="left_1" pos="281.86" speed="0.16" angle="90.00" x="374.36" y="139.77"/>
        <vehicle id="4_1" eclass="HBEFA3/PC_G_EU4" CO2="2645.24" CO="161.96" HC="0.80" NOx="1.21" PMx="0.07" fuel="1.14" electricity="0.00" noise="60.06" route="routecenter" type="4" waiting="0.00" lane="center_0" pos="95.38" speed="0.18" angle="90.00" x="495.36" y="136.47"/>
        <vehicle id="4_2" eclass="HBEFA3/PC_G_EU4" CO2="2634.43" CO="162.36" HC="0.80" NOx="1.20" PMx="0.07" fuel="1.13" electricity="0.00" noise="59.27" route="routecenter" type="4" waiting="0.00" lane="center_1" pos="110.13" speed="0.15" angle="90.00" x="510.18" y="139.77"/>
        <vehicle id="4_3" eclass="HBEFA3/PC_G_EU4" CO2="2651.22" CO="161.80" HC="0.80" NOx="1.21" PMx="0.07" fuel="1.14" electricity="0.00" noise="60.41" route="routeinflow_highway" type="4" waiting="0.00" lane="inflow_highway_0" pos="28.00" speed="0.20" angle="90.00" x="28.00" y="136.47"/>
        <vehicle id="4_4" eclass="HBEFA3/PC_G_EU4" CO2="2650.67" CO="161.82" HC="0.80" NOx="1.21" PMx="0.07" fuel="1.14" electricity="0.00" noise="60.38" route="routeinflow_highway" type="4" waiting="0.00" lane="inflow_highway_1" pos="25.14" speed="0.20" angle="90.00" x="25.14" y="139.77"/>
    </timestep>
    <timestep time="0.60">
        <vehicle id="1_0" eclass="HBEFA3/PC_G_EU4" CO2="2678.34" CO="158.88" HC="0.79" NOx="1.22" PMx="0.07" fuel="1.15" electricity="0.00" noise="60.49" route="routeinflow_merge" type="1" waiting="0.00" lane="inflow_merge_0" pos="11.66" speed="0.40" angle="45.00" x="268.00" y="7.08"/>
        <vehicle id="1_1" eclass="HBEFA3/PC_G_EU4" CO2="2629.96" CO="159.44" HC="0.79" NOx="1.20" PMx="0.06" fuel="1.13" electricity="0.00" noise="58.49" route="routemerge" type="1" waiting="0.00" lane="merge_0" pos="23.75" speed="0.31" angle="45.00" x="345.46" y="84.54"/>
        <vehicle id="1_2" eclass="HBEFA3/PC_G_EU4" CO2="2678.34" CO="158.88" HC="0.79" NOx="1.22" PMx="0.07" fuel="1.15" electricity="0.00" noise="60.49" route="routediverge" type="1" waiting="0.00" lane="diverge_0" pos="41.76" speed="0.40" angle="135.00" x="634.36" y="104.73"/>
        <vehicle id="1_3" eclass="HBEFA3/PC_G_EU4" CO2="2673.51" CO="159.39" HC="0.79" NOx="1.22" PMx="0.07" fuel="1.15" electricity="0.00" noise="60.48" route="routediverge" type="1" waiting="0.00" lane="diverge_0" pos="157.05" speed="0.36" angle="135.00" x="711.51" y="27.58"/>
        <vehicle id="1_4" eclass="HBEFA3/PC_G_EU4" CO2="2678.34" CO="158.88" HC="0.79" NOx="1.22" PMx="0.07" fuel="1.15" electricity="0.00" noise="60.49" route="routeright" type="1" waiting="0.00" lane="right_0" pos="90.76" speed="0.40" angle="90.00" x="696.93" y="136.47"/>
        <vehicle id="2_0" eclass="HBEFA3/PC_G_EU4" CO2="2668.21" CO="159.96" HC="0.79" NOx="1.22" PMx="0.07" fuel="1.15" electricity="0.00" noise="60.46" route="routeright" type="2" waiting="0.00" lane="right_1" pos="80.66" speed="0.33" angle="90.00" x="687.03" y="139.77"/>
        <vehicle id="2_1" eclass="HBEFA3/PC_G_EU4" CO2="2678.34" CO="158.88" HC="0.79" NOx="1.22" PMx="0.07" fuel="1.15" electricity="0.00" noise="60.49" route="routeright" type="2" waiting="0.00" lane="right_0" pos="201.26" speed="0.40" angle="90.00" x="805.23" y="136.47"/>
        <vehicle id="2_2" eclass="HBEFA3/PC_G_EU4" CO2="2677.83" CO="158.93" HC="0.79" NOx="1.22" PMx="0.07" fuel="1.15" electricity="0.00" noise="60.49" route="routeright" type="2" waiting="0.00" lane="right_1" pos="205.09" speed="0.40" angle="90.00" x="808.98" y="139.77"/>
        <vehicle id="2_3" eclass="HBEFA3/PC_G_EU4" CO2="2641.92" CO="159.23" HC="0.79" NOx="1.20" PMx="0.06" fuel="1.14" electricity="0.00" noise="59.07" route="routeright" type="2" waiting="0.00" lane="right_0" pos="317.98" speed="0.34" angle="90.00" x="919.61" y="136.47"/>
        <vehicle id="2_4" eclass="HBEFA3/PC_G_EU4" CO2="2677.38" CO="158.98" HC="0.79" NOx="1.22" PMx="0.07" fuel="1.15" electricity="0.00" noise="60.49" route="routeright" type="2" waiting="0.00" lane="right_1" pos="333.08" speed="0.39" angle="90.00" x="934.41" y="139.77"/>
        <vehicle id="3_0" eclass="HBEFA3/PC_G_EU4" CO2="2654.58" CO="159.15" HC="0.79" NOx="1.21" PMx="0.06" fuel="1.14" electricity="0.00" noise="59.63" route="routeleft" type="3" waiting="0.00" lane="left_0" pos="41.41" speed="0.36" angle="90.00" x="140.31" y="136.47"/>
        <vehicle id="3_1" eclass="HBEFA3/PC_G_EU4" CO2="2678.34" CO="158.88" HC="0.79" NOx="1.22" PMx="0.07" fuel="1.15" electricity="0.00" noise="60.49" route="routeleft" type="3" waiting="0.00" lane="left_1" pos="33.52" speed="0.40" angle="90.00" x="132.63" y="139.77"/>
        <vehicle id="3_2" eclass="HBEFA3/PC_G_EU4" CO2="2667.77" CO="160.01" HC="0.79" NOx="1.22" PMx="0.07" fuel="1.15" electricity="0.00" noise="60.46" route="routeleft" type="3" waiting="0.00" lane="left_0" pos="163.20" speed="0.32" angle="90.00" x="258.85" y="136.47"/>
        <vehicle id="3_3" eclass="HBEFA3/PC_G_EU4" CO2="2665.79" CO="160.22" HC="0.79" NOx="1.22" PMx="0.07" fuel="1.15" electricity="0.00" noise="60.46" route="routeleft" type="3" waiting="0.00" lane="left_1" pos="160.31" speed="0.31" angle="90.00" x="256.05" y="139.77"/>
        <vehicle id="3_4" eclass="HBEFA3/PC_G_EU4" CO2="2672.32" CO="159.14" HC="0.79" NOx="1.22" PMx="0.07" fuel="1.15" electricity="0.00" noise="60.35" route="routeleft" type="3" waiting="0.00" lane="left_0" pos="278.18" speed="0.38" angle="90.00" x="370.78" y="136.47"/>
        <vehicle id="4_0" eclass="HBEFA3/PC_G_EU4" CO2="2638.93" CO="159.82" HC="0.79" NOx="1.20" PMx="0.06" fuel="1.13" electricity="0.00" noise="59.00" route="routeleft" type="4" waiting="0.00" lane="left_1" pos="281.92" speed="0.30" angle="90.00" x="374.42" y="139.77"/>
        <vehicle id="4_1" eclass="HBEFA3/PC_G_EU4" CO2="2663.29" CO="159.21" HC="0.79" NOx="1.21" PMx="0.06" fuel="1.14" electricity="0.00" noise="60.01" route="routecenter" type="4" waiting="0.00" lane="center_0" pos="95.45" speed="0.36" angle="90.00" x="495.43" y="136.47"/>
        <vehicle id="4_2" eclass="HBEFA3/PC_G_EU4" CO2="2646.53" CO="159.93" HC="0.79" NOx="1.21" PMx="0.06" fuel="1.14" electricity="0.00" noise="59.42" route="routecenter" type="4" waiting="0.00" lane="center_1" pos="110.19" speed="0.30" angle="90.00" x="510.24" y="139.77"/>
        <vehicle id="4_3" eclass="HBEFA3/PC_G_EU4" CO2="2651.04" CO="159.11" HC="0.79" NOx="1.21" PMx="0.06" fuel="1.14" electricity="0.00" noise="59.47" route="routeinflow_highway" type="4" waiting="0.00" lane="inflow_highway_0" pos="28.07" speed="0.35" angle="90.00" x="28.07" y="136.47"/>
        <vehicle id="4_4" eclass="HBEFA3/PC_G_EU4" CO2="2678.15" CO="158.90" HC="0.79" NOx="1.22" PMx="0.07" fuel="1.15" electricity="0.00" noise="60.49" route="routeinflow_highway" type="4" waiting="0.00" lane="inflow_highway_1" pos="25.22" speed="0.40" angle="90.00" x="25.22" y="139.77"/>
    </timestep>
    <timestep time="0.80">
        <vehicle id="1_0" eclass="HBEFA3/PC_G_EU4" CO2="2650.54" CO="156.00" HC="0.77" NOx="1.20" PMx="0.06" fuel="1.14" electricity="0.00" noise="59.08" route="routeinflow_merge" type="1" waiting="0.00" lane="inflow_merge_0" pos="11.77" speed="0.53" angle="45.00" x="268.07" y="7.15"/>
        <vehicle id="1_1" eclass="HBEFA3/PC_G_EU4" CO2="2693.61" CO="157.28" HC="0.78" NOx="1.22" PMx="0.06" fuel="1.16" electricity="0.00" noise="60.53" route="routemerge" type="1" waiting="0.00" lane="merge_0" pos="23.86" speed="0.51" angle="45.00" x="345.52" y="84.60"/>
        <vehicle id="1_2" eclass="HBEFA3/PC_G_EU4" CO2="2624.74" CO="156.10" HC="0.77" NOx="1.19" PMx="0.06" fuel="1.13" electricity="0.00" noise="58.25" route="routediverge" type="1" waiting="0.00" lane="diverge_0" pos="41.86" speed="0.50" angle="135.00" x="634.42" y="104.66"/>
        <vehicle id="1_3" eclass="HBEFA3/PC_G_EU4" CO2="2638.19" CO="156.62" HC="0.77" NOx="1.20" PMx="0.06" fuel="1.13" electricity="0.00" noise="58.72" route="routediverge" type="1" waiting="0.00" lane="diverge_0" pos="157.14" speed="0.48" angle="135.00" x="711.57" y="27.51"/>
        <vehicle id="1_4" eclass="HBEFA3/PC_G_EU4" CO2="2706.10" CO="156.00" HC="0.77" NOx="1.23" PMx="0.06" fuel="1.16" electricity="0.00" noise="60.57" route="routeright" type="1" waiting="0.00" lane="right_0" pos="90.88" speed="0.60" angle="90.00" x="697.05" y="136.47"/>
        <vehicle id="2_0" eclass="HBEFA3/PC_G_EU4" CO2="2695.73" CO="157.06" HC="0.78" NOx="1.22" PMx="0.06" fuel="1.16" electricity="0.00" noise="60.54" route="routeright" type="2" waiting="0.00" lane="right_1" pos="80.76" speed="0.53" angle="90.00" x="687.13" y="139.77"/>
        <vehicle id="2_1" eclass="HBEFA3/PC_G_EU4" CO2="2706.10" CO="156.00" HC="0.77" NOx="1.23" PMx="0.06" fuel="1.16" electricity="0.00" noise="60.57" route="routeright" type="2" waiting="0.00" lane="right_0" pos="201.38" speed="0.60" angle="90.00" x="805.34" y="136.47"/>
        <vehicle id="2_2" eclass="HBEFA3/PC_G_EU4" CO2="2705.57" CO="156.05" HC="0.77" NOx="1.23" PMx="0.06" fuel="1.16" electricity="0.00" noise="60.56" route="routeright" type="2" waiting="0.00" lane="right_1" pos="205.21" speed="0.60" angle="90.00" x="809.10" y="139.77"/>
        <vehicle id="2_3" eclass="HBEFA3/PC_G_EU4" CO2="2696.09" CO="156.90" HC="0.78" NOx="1.22" PMx="0.06" fuel="1.16" electricity="0.00" noise="60.51" route="routeright" type="2" waiting="0.00" lane="right_0" pos="318.09" speed="0.54" angle="90.00" x="919.72" y="136.47"/>
        <vehicle id="2_4" eclass="HBEFA3/PC_G_EU4" CO2="2699.27" CO="156.09" HC="0.77" NOx="1.22" PMx="0.06" fuel="1.16" electricity="0.00" noise="60.42" route="routeright" type="2" waiting="0.00" lane="right_1" pos="333.19" speed="0.59" angle="90.00" x="934.53" y="139.77"/>
        <vehicle id="3_0" eclass="HBEFA3/PC_G_EU4" CO2="2682.91" CO="156.63" HC="0.78" NOx="1.22" PMx="0.06" fuel="1.15" electricity="0.00" noise="60.09" route="routeleft" type="3" waiting="0.00" lane="left_0" pos="41.52" speed="0.54" angle="90.00" x="140.42" y="136.47"/>
        <vehicle id="3_1" eclass="HBEFA3/PC_G_EU4" CO2="2675.68" CO="155.97" HC="0.77" NOx="1.21" PMx="0.06" fuel="1.15" electricity="0.00" noise="59.79" route="routeleft" type="3" waiting="0.00" lane="left_1" pos="33.64" speed="0.57" angle="90.00" x="132.74" y="139.77"/>
        <vehicle id="3_2" eclass="HBEFA3/PC_G_EU4" CO2="2661.06" CO="157.18" HC="0.78" NOx="1.21" PMx="0.06" fuel="1.14" electricity="0.00" noise="59.53" route="routeleft" type="3" waiting="0.00" lane="left_0" pos="163.29" speed="0.48" angle="90.00" x="258.95" y="136.47"/>
        <vehicle id="3_3" eclass="HBEFA3/PC_G_EU4" CO2="2671.04" CO="157.36" HC="0.78" NOx="1.21" PMx="0.06" fuel="1.15" electricity="0.00" noise="59.88" route="routeleft" type="3" waiting="0.00" lane="left_1" pos="160.41" speed="0.48" angle="90.00" x="256.14" y="139.77"/>
        <vehicle id="3_4" eclass="HBEFA3/PC_G_EU4" CO2="2699.85" CO="156.32" HC="0.77" NOx="1.22" PMx="0.06" fuel="1.16" electricity="0.00" noise="60.48" route="routeleft" type="3" waiting="0.00" lane="left_0" pos="278.29" speed="0.57" angle="90.00" x="370.89" y="136.47"/>
        <vehicle id="4_0" eclass="HBEFA3/PC_G_EU4" CO2="2692.01" CO="157.45" HC="0.78" NOx="1.22" PMx="0.06" fuel="1.16" electricity="0.00" noise="60.53" route="routeleft" type="4" waiting="0.00" lane="left_1" pos="282.02" speed="0.50" angle="90.00" x="374.52" y="139.77"/>
        <vehicle id="4_1" eclass="HBEFA3/PC_G_EU4" CO2="2700.90" CO="156.53" HC="0.78" NOx="1.22" PMx="0.06" fuel="1.16" electricity="0.00" noise="60.55" route="routecenter" type="4" waiting="0.00" lane="center_0" pos="95.56" speed="0.56" angle="90.00" x="495.54" y="136.47"/>
        <vehicle id="4_2" eclass="HBEFA3/PC_G_EU4" CO2="2692.41" CO="157.40" HC="0.78" NOx="1.22" PMx="0.06" fuel="1.16" electricity="0.00" noise="60.53" route="routecenter" type="4" waiting="0.00" lane="center_1" pos="110.29" speed="0.50" angle="90.00" x="510.34" y="139.77"/>
        <vehicle id="4_3" eclass="HBEFA3/PC_G_EU4" CO2="2699.71" CO="156.65" HC="0.78" NOx="1.22" PMx="0.06" fuel="1.16" electricity="0.00" noise="60.55" route="routeinflow_highway" type="4" waiting="0.00" lane="inflow_highway_0" pos="28.18" speed="0.55" angle="90.00" x="28.18" y="136.47"/>
        <vehicle id="4_4" eclass="HBEFA3/PC_G_EU4" CO2="2676.13" CO="155.99" HC="0.77" NOx="1.21" PMx="0.06" fuel="1.15" electricity="0.00" noise="59.80" route="routeinflow_highway" type="4" waiting="0.00" lane="inflow_highway_1" pos="25.33" speed="0.56" angle="90.00" x="25.33" y="139.77"/>
    </timestep>
    <timestep time="1.00">
        <vehicle id="1_0" eclass="HBEFA3/PC_G_EU4" CO2="2684.86" CO="153.93" HC="0.76" NOx="1.21" PMx="0.06" fuel="1.15" electricity="0.00" noise="59.76" route="routeinflow_merge" type="1" waiting="0.00" lane="inflow_merge_0" pos="11.91" speed="0.70" angle="45.00" x="268.17" y="7.25"/>