<?xml version="1.0" encoding="UTF-8"?>

<!-- generated on Mon Nov 19 21:05:05 2018 by SUMO gui Version b'v0_31_0-812-g1d4338ab80'
<?xml version="1.0" encoding="UTF-8"?>

<configuration xmlns:xsi="http://www.w3.org/2001/XMLSchema-instance" xsi:noNamespaceSchemaLocation="http://sumo.dlr.de/xsd/sumoConfiguration.xsd">

    <input>
        <net-file value="/Users/barryfan/flow/flow/scenarios/debug/cfg/merge-baseline_20181119-2105041542690304.69705.net.xml"/>
        <route-files value="/Users/barryfan/flow/flow/scenarios/debug/cfg/merge-baseline_20181119-2105041542690304.69705.rou.xml"/>
        <additional-files value="/Users/barryfan/flow/flow/scenarios/debug/cfg/merge-baseline_20181119-2105041542690304.69705.add.xml"/>
    </input>

    <output>
        <emission-output value="./data/merge-baseline_20181119-2105041542690304.69705-emission.xml"/>
    </output>

    <time>
        <begin value="0"/>
        <step-length value="0.2"/>
    </time>

    <processing>
        <lateral-resolution value="0.2"/>
        <time-to-teleport value="-1"/>
    </processing>

    <report>
        <no-step-log value="true"/>
    </report>

    <traci_server>
        <remote-port value="63457"/>
    </traci_server>

    <gui_only>
        <gui-settings-file value="/Users/barryfan/flow/flow/scenarios/debug/cfg/merge-baseline_20181119-2105041542690304.69705.gui.cfg"/>
        <tracker-interval value="0.2"/>
    </gui_only>

</configuration>
-->

<emission-export xmlns:xsi="http://www.w3.org/2001/XMLSchema-instance" xsi:noNamespaceSchemaLocation="http://sumo.dlr.de/xsd/emission_file.xsd">
    <timestep time="0.00">
        <vehicle id="1_0" eclass="HBEFA3/PC_G_EU4" CO2="2624.72" CO="164.78" HC="0.81" NOx="1.20" PMx="0.07" fuel="1.13" electricity="0.00" noise="55.94" route="routemerge" type="1" waiting="0.00" lane="merge_0" pos="9.98" speed="0.00" angle="45.00" x="336.76" y="75.84"/>
        <vehicle id="1_1" eclass="HBEFA3/PC_G_EU4" CO2="2624.72" CO="164.78" HC="0.81" NOx="1.20" PMx="0.07" fuel="1.13" electricity="0.00" noise="55.94" route="routeinflow_merge" type="1" waiting="0.00" lane="inflow_merge_0" pos="26.94" speed="0.00" angle="45.00" x="278.80" y="17.88"/>
        <vehicle id="1_2" eclass="HBEFA3/PC_G_EU4" CO2="2624.72" CO="164.78" HC="0.81" NOx="1.20" PMx="0.07" fuel="1.13" electricity="0.00" noise="55.94" route="routeleft" type="1" waiting="0.00" lane="left_0" pos="47.17" speed="0.00" angle="90.00" x="145.92" y="136.47"/>
        <vehicle id="1_3" eclass="HBEFA3/PC_G_EU4" CO2="2624.72" CO="164.78" HC="0.81" NOx="1.20" PMx="0.07" fuel="1.13" electricity="0.00" noise="55.94" route="routeleft" type="1" waiting="0.00" lane="left_1" pos="39.63" speed="0.00" angle="90.00" x="138.57" y="139.77"/>
        <vehicle id="1_4" eclass="HBEFA3/PC_G_EU4" CO2="2624.72" CO="164.78" HC="0.81" NOx="1.20" PMx="0.07" fuel="1.13" electricity="0.00" noise="55.94" route="routeleft" type="1" waiting="0.00" lane="left_0" pos="172.45" speed="0.00" angle="90.00" x="267.86" y="136.47"/>
        <vehicle id="2_0" eclass="HBEFA3/PC_G_EU4" CO2="2624.72" CO="164.78" HC="0.81" NOx="1.20" PMx="0.07" fuel="1.13" electricity="0.00" noise="55.94" route="routeleft" type="2" waiting="0.00" lane="left_1" pos="160.74" speed="0.00" angle="90.00" x="256.46" y="139.77"/>
        <vehicle id="2_1" eclass="HBEFA3/PC_G_EU4" CO2="2624.72" CO="164.78" HC="0.81" NOx="1.20" PMx="0.07" fuel="1.13" electricity="0.00" noise="55.94" route="routeleft" type="2" waiting="0.00" lane="left_0" pos="283.48" speed="0.00" angle="90.00" x="375.94" y="136.47"/>
        <vehicle id="2_2" eclass="HBEFA3/PC_G_EU4" CO2="2624.72" CO="164.78" HC="0.81" NOx="1.20" PMx="0.07" fuel="1.13" electricity="0.00" noise="55.94" route="routeleft" type="2" waiting="0.00" lane="left_1" pos="285.00" speed="0.00" angle="90.00" x="377.42" y="139.77"/>
        <vehicle id="2_3" eclass="HBEFA3/PC_G_EU4" CO2="2624.72" CO="164.78" HC="0.81" NOx="1.20" PMx="0.07" fuel="1.13" electricity="0.00" noise="55.94" route="routeright" type="2" waiting="0.00" lane="right_0" pos="100.63" speed="0.00" angle="90.00" x="706.60" y="136.47"/>
        <vehicle id="2_4" eclass="HBEFA3/PC_G_EU4" CO2="2624.72" CO="164.78" HC="0.81" NOx="1.20" PMx="0.07" fuel="1.13" electricity="0.00" noise="55.94" route="routeright" type="2" waiting="0.00" lane="right_1" pos="105.69" speed="0.00" angle="90.00" x="711.56" y="139.77"/>
        <vehicle id="3_0" eclass="HBEFA3/PC_G_EU4" CO2="2624.72" CO="164.78" HC="0.81" NOx="1.20" PMx="0.07" fuel="1.13" electricity="0.00" noise="55.94" route="routeright" type="3" waiting="0.00" lane="right_0" pos="226.44" speed="0.00" angle="90.00" x="829.90" y="136.47"/>
        <vehicle id="3_1" eclass="HBEFA3/PC_G_EU4" CO2="2624.72" CO="164.78" HC="0.81" NOx="1.20" PMx="0.07" fuel="1.13" electricity="0.00" noise="55.94" route="routeright" type="3" waiting="0.00" lane="right_1" pos="227.22" speed="0.00" angle="90.00" x="830.67" y="139.77"/>
        <vehicle id="3_2" eclass="HBEFA3/PC_G_EU4" CO2="2624.72" CO="164.78" HC="0.81" NOx="1.20" PMx="0.07" fuel="1.13" electricity="0.00" noise="55.94" route="routeright" type="3" waiting="0.00" lane="right_0" pos="347.40" speed="0.00" angle="90.00" x="948.45" y="136.47"/>
        <vehicle id="3_3" eclass="HBEFA3/PC_G_EU4" CO2="2624.72" CO="164.78" HC="0.81" NOx="1.20" PMx="0.07" fuel="1.13" electricity="0.00" noise="55.94" route="routeright" type="3" waiting="0.00" lane="right_1" pos="343.32" speed="0.00" angle="90.00" x="944.45" y="139.77"/>
        <vehicle id="3_4" eclass="HBEFA3/PC_G_EU4" CO2="2624.72" CO="164.78" HC="0.81" NOx="1.20" PMx="0.07" fuel="1.13" electricity="0.00" noise="55.94" route="routediverge" type="3" waiting="0.00" lane="diverge_0" pos="65.82" speed="0.00" angle="135.00" x="650.46" y="88.63"/>
        <vehicle id="4_0" eclass="HBEFA3/PC_G_EU4" CO2="2624.72" CO="164.78" HC="0.81" NOx="1.20" PMx="0.07" fuel="1.13" electricity="0.00" noise="55.94" route="routediverge" type="4" waiting="0.00" lane="diverge_0" pos="187.11" speed="0.00" angle="135.00" x="731.62" y="7.46"/>
        <vehicle id="4_1" eclass="HBEFA3/PC_G_EU4" CO2="2624.72" CO="164.78" HC="0.81" NOx="1.20" PMx="0.07" fuel="1.13" electricity="0.00" noise="55.94" route="routecenter" type="4" waiting="0.00" lane="center_0" pos="8.85" speed="0.00" angle="90.00" x="408.44" y="136.47"/>
        <vehicle id="4_2" eclass="HBEFA3/PC_G_EU4" CO2="2624.72" CO="164.78" HC="0.81" NOx="1.20" PMx="0.07" fuel="1.13" electricity="0.00" noise="55.94" route="routecenter" type="4" waiting="0.00" lane="center_1" pos="1.43" speed="0.00" angle="90.00" x="400.99" y="139.77"/>
        <vehicle id="4_3" eclass="HBEFA3/PC_G_EU4" CO2="2624.72" CO="164.78" HC="0.81" NOx="1.20" PMx="0.07" fuel="1.13" electricity="0.00" noise="55.94" route="routecenter" type="4" waiting="0.00" lane="center_0" pos="127.98" speed="0.00" angle="90.00" x="528.11" y="136.47"/>
        <vehicle id="4_4" eclass="HBEFA3/PC_G_EU4" CO2="2624.72" CO="164.78" HC="0.81" NOx="1.20" PMx="0.07" fuel="1.13" electricity="0.00" noise="55.94" route="routecenter" type="4" waiting="0.00" lane="center_1" pos="124.90" speed="0.00" angle="90.00" x="525.02" y="139.77"/>
    </timestep>
    <timestep time="0.20">
        <vehicle id="1_0" eclass="HBEFA3/PC_G_EU4" CO2="2624.72" CO="164.78" HC="0.81" NOx="1.20" PMx="0.07" fuel="1.13" electricity="0.00" noise="55.94" route="routemerge" type="1" waiting="0.00" lane="merge_0" pos="9.98" speed="0.00" angle="45.00" x="336.76" y="75.84"/>
        <vehicle id="1_1" eclass="HBEFA3/PC_G_EU4" CO2="2624.72" CO="164.78" HC="0.81" NOx="1.20" PMx="0.07" fuel="1.13" electricity="0.00" noise="55.94" route="routeinflow_merge" type="1" waiting="0.00" lane="inflow_merge_0" pos="26.94" speed="0.00" angle="45.00" x="278.80" y="17.88"/>
        <vehicle id="1_2" eclass="HBEFA3/PC_G_EU4" CO2="2624.72" CO="164.78" HC="0.81" NOx="1.20" PMx="0.07" fuel="1.13" electricity="0.00" noise="55.94" route="routeleft" type="1" waiting="0.00" lane="left_0" pos="47.17" speed="0.00" angle="90.00" x="145.92" y="136.47"/>
        <vehicle id="1_3" eclass="HBEFA3/PC_G_EU4" CO2="2624.72" CO="164.78" HC="0.81" NOx="1.20" PMx="0.07" fuel="1.13" electricity="0.00" noise="55.94" route="routeleft" type="1" waiting="0.00" lane="left_1" pos="39.63" speed="0.00" angle="90.00" x="138.57" y="139.77"/>
        <vehicle id="1_4" eclass="HBEFA3/PC_G_EU4" CO2="2624.72" CO="164.78" HC="0.81" NOx="1.20" PMx="0.07" fuel="1.13" electricity="0.00" noise="55.94" route="routeleft" type="1" waiting="0.00" lane="left_0" pos="172.45" speed="0.00" angle="90.00" x="267.86" y="136.47"/>
        <vehicle id="2_0" eclass="HBEFA3/PC_G_EU4" CO2="2624.72" CO="164.78" HC="0.81" NOx="1.20" PMx="0.07" fuel="1.13" electricity="0.00" noise="55.94" route="routeleft" type="2" waiting="0.00" lane="left_1" pos="160.74" speed="0.00" angle="90.00" x="256.46" y="139.77"/>
        <vehicle id="2_1" eclass="HBEFA3/PC_G_EU4" CO2="2624.72" CO="164.78" HC="0.81" NOx="1.20" PMx="0.07" fuel="1.13" electricity="0.00" noise="55.94" route="routeleft" type="2" waiting="0.00" lane="left_0" pos="283.48" speed="0.00" angle="90.00" x="375.94" y="136.47"/>
        <vehicle id="2_2" eclass="HBEFA3/PC_G_EU4" CO2="2624.72" CO="164.78" HC="0.81" NOx="1.20" PMx="0.07" fuel="1.13" electricity="0.00" noise="55.94" route="routeleft" type="2" waiting="0.00" lane="left_1" pos="285.00" speed="0.00" angle="90.00" x="377.42" y="139.77"/>
        <vehicle id="2_3" eclass="HBEFA3/PC_G_EU4" CO2="2624.72" CO="164.78" HC="0.81" NOx="1.20" PMx="0.07" fuel="1.13" electricity="0.00" noise="55.94" route="routeright" type="2" waiting="0.00" lane="right_0" pos="100.63" speed="0.00" angle="90.00" x="706.60" y="136.47"/>
        <vehicle id="2_4" eclass="HBEFA3/PC_G_EU4" CO2="2624.72" CO="164.78" HC="0.81" NOx="1.20" PMx="0.07" fuel="1.13" electricity="0.00" noise="55.94" route="routeright" type="2" waiting="0.00" lane="right_1" pos="105.69" speed="0.00" angle="90.00" x="711.56" y="139.77"/>
        <vehicle id="3_0" eclass="HBEFA3/PC_G_EU4" CO2="2624.72" CO="164.78" HC="0.81" NOx="1.20" PMx="0.07" fuel="1.13" electricity="0.00" noise="55.94" route="routeright" type="3" waiting="0.00" lane="right_0" pos="226.44" speed="0.00" angle="90.00" x="829.90" y="136.47"/>
        <vehicle id="3_1" eclass="HBEFA3/PC_G_EU4" CO2="2624.72" CO="164.78" HC="0.81" NOx="1.20" PMx="0.07" fuel="1.13" electricity="0.00" noise="55.94" route="routeright" type="3" waiting="0.00" lane="right_1" pos="227.22" speed="0.00" angle="90.00" x="830.67" y="139.77"/>
        <vehicle id="3_2" eclass="HBEFA3/PC_G_EU4" CO2="2624.72" CO="164.78" HC="0.81" NOx="1.20" PMx="0.07" fuel="1.13" electricity="0.00" noise="55.94" route="routeright" type="3" waiting="0.00" lane="right_0" pos="347.40" speed="0.00" angle="90.00" x="948.45" y="136.47"/>
        <vehicle id="3_3" eclass="HBEFA3/PC_G_EU4" CO2="2624.72" CO="164.78" HC="0.81" NOx="1.20" PMx="0.07" fuel="1.13" electricity="0.00" noise="55.94" route="routeright" type="3" waiting="0.00" lane="right_1" pos="343.32" speed="0.00" angle="90.00" x="944.45" y="139.77"/>
        <vehicle id="3_4" eclass="HBEFA3/PC_G_EU4" CO2="2624.72" CO="164.78" HC="0.81" NOx="1.20" PMx="0.07" fuel="1.13" electricity="0.00" noise="55.94" route="routediverge" type="3" waiting="0.00" lane="diverge_0" pos="65.82" speed="0.00" angle="135.00" x="650.46" y="88.63"/>
        <vehicle id="4_0" eclass="HBEFA3/PC_G_EU4" CO2="2624.72" CO="164.78" HC="0.81" NOx="1.20" PMx="0.07" fuel="1.13" electricity="0.00" noise="55.94" route="routediverge" type="4" waiting="0.00" lane="diverge_0" pos="187.11" speed="0.00" angle="135.00" x="731.62" y="7.46"/>
        <vehicle id="4_1" eclass="HBEFA3/PC_G_EU4" CO2="2624.72" CO="164.78" HC="0.81" NOx="1.20" PMx="0.07" fuel="1.13" electricity="0.00" noise="55.94" route="routecenter" type="4" waiting="0.00" lane="center_0" pos="8.85" speed="0.00" angle="90.00" x="408.44" y="136.47"/>
        <vehicle id="4_2" eclass="HBEFA3/PC_G_EU4" CO2="2624.72" CO="164.78" HC="0.81" NOx="1.20" PMx="0.07" fuel="1.13" electricity="0.00" noise="55.94" route="routecenter" type="4" waiting="0.00" lane="center_1" pos="1.43" speed="0.00" angle="90.00" x="400.99" y="139.77"/>
        <vehicle id="4_3" eclass="HBEFA3/PC_G_EU4" CO2="2624.72" CO="164.78" HC="0.81" NOx="1.20" PMx="0.07" fuel="1.13" electricity="0.00" noise="55.94" route="routecenter" type="4" waiting="0.00" lane="center_0" pos="127.98" speed="0.00" angle="90.00" x="528.11" y="136.47"/>
        <vehicle id="4_4" eclass="HBEFA3/PC_G_EU4" CO2="2624.72" CO="164.78" HC="0.81" NOx="1.20" PMx="0.07" fuel="1.13" electricity="0.00" noise="55.94" route="routecenter" type="4" waiting="0.00" lane="center_1" pos="124.90" speed="0.00" angle="90.00" x="525.02" y="139.77"/>
    </timestep>
    <timestep time="0.40">
        <vehicle id="1_0" eclass="HBEFA3/PC_G_EU4" CO2="2651.22" CO="161.80" HC="0.80" NOx="1.21" PMx="0.07" fuel="1.14" electricity="0.00" noise="60.41" route="routemerge" type="1" waiting="0.00" lane="merge_0" pos="10.02" speed="0.20" angle="45.00" x="336.79" y="75.87"/>
        <vehicle id="1_1" eclass="HBEFA3/PC_G_EU4" CO2="2651.22" CO="161.80" HC="0.80" NOx="1.21" PMx="0.07" fuel="1.14" electricity="0.00" noise="60.41" route="routeinflow_merge" type="1" waiting="0.00" lane="inflow_merge_0" pos="26.98" speed="0.20" angle="45.00" x="278.83" y="17.91"/>
        <vehicle id="1_2" eclass="HBEFA3/PC_G_EU4" CO2="2647.77" CO="161.89" HC="0.80" NOx="1.21" PMx="0.07" fuel="1.14" electricity="0.00" noise="60.21" route="routeleft" type="1" waiting="0.00" lane="left_0" pos="47.21" speed="0.19" angle="90.00" x="145.95" y="136.47"/>
        <vehicle id="1_3" eclass="HBEFA3/PC_G_EU4" CO2="2643.32" CO="162.02" HC="0.80" NOx="1.21" PMx="0.07" fuel="1.14" electricity="0.00" noise="59.93" route="routeleft" type="1" waiting="0.00" lane="left_1" pos="39.66" speed="0.18" angle="90.00" x="138.61" y="139.77"/>
        <vehicle id="1_4" eclass="HBEFA3/PC_G_EU4" CO2="2651.22" CO="161.80" HC="0.80" NOx="1.21" PMx="0.07" fuel="1.14" electricity="0.00" noise="60.41" route="routeleft" type="1" waiting="0.00" lane="left_0" pos="172.49" speed="0.20" angle="90.00" x="267.90" y="136.47"/>
        <vehicle id="2_0" eclass="HBEFA3/PC_G_EU4" CO2="2643.70" CO="162.01" HC="0.80" NOx="1.21" PMx="0.07" fuel="1.14" electricity="0.00" noise="59.96" route="routeleft" type="2" waiting="0.00" lane="left_1" pos="160.78" speed="0.18" angle="90.00" x="256.50" y="139.77"/>
        <vehicle id="2_1" eclass="HBEFA3/PC_G_EU4" CO2="2651.22" CO="161.80" HC="0.80" NOx="1.21" PMx="0.07" fuel="1.14" electricity="0.00" noise="60.41" route="routeleft" type="2" waiting="0.00" lane="left_0" pos="283.52" speed="0.20" angle="90.00" x="375.98" y="136.47"/>
        <vehicle id="2_2" eclass="HBEFA3/PC_G_EU4" CO2="2651.22" CO="161.80" HC="0.80" NOx="1.21" PMx="0.07" fuel="1.14" electricity="0.00" noise="60.41" route="routeleft" type="2" waiting="0.00" lane="left_1" pos="285.04" speed="0.20" angle="90.00" x="377.46" y="139.77"/>
        <vehicle id="2_3" eclass="HBEFA3/PC_G_EU4" CO2="2641.97" CO="162.06" HC="0.80" NOx="1.21" PMx="0.07" fuel="1.14" electricity="0.00" noise="59.84" route="routeright" type="2" waiting="0.00" lane="right_0" pos="100.67" speed="0.17" angle="90.00" x="706.64" y="136.47"/>
        <vehicle id="2_4" eclass="HBEFA3/PC_G_EU4" CO2="2646.12" CO="161.94" HC="0.80" NOx="1.21" PMx="0.07" fuel="1.14" electricity="0.00" noise="60.11" route="routeright" type="2" waiting="0.00" lane="right_1" pos="105.72" speed="0.19" angle="90.00" x="711.59" y="139.77"/>
        <vehicle id="3_0" eclass="HBEFA3/PC_G_EU4" CO2="2647.04" CO="161.91" HC="0.80" NOx="1.21" PMx="0.07" fuel="1.14" electricity="0.00" noise="60.17" route="routeright" type="3" waiting="0.00" lane="right_0" pos="226.48" speed="0.19" angle="90.00" x="829.94" y="136.47"/>
        <vehicle id="3_1" eclass="HBEFA3/PC_G_EU4" CO2="2649.90" CO="161.84" HC="0.80" NOx="1.21" PMx="0.07" fuel="1.14" electricity="0.00" noise="60.34" route="routeright" type="3" waiting="0.00" lane="right_1" pos="227.26" speed="0.20" angle="90.00" x="830.71" y="139.77"/>
        <vehicle id="3_2" eclass="HBEFA3/PC_G_EU4" CO2="2642.84" CO="162.03" HC="0.80" NOx="1.21" PMx="0.07" fuel="1.14" electricity="0.00" noise="59.90" route="routeright" type="3" waiting="0.00" lane="right_0" pos="347.44" speed="0.18" angle="90.00" x="948.49" y="136.47"/>
        <vehicle id="3_3" eclass="HBEFA3/PC_G_EU4" CO2="2651.22" CO="161.80" HC="0.80" NOx="1.21" PMx="0.07" fuel="1.14" electricity="0.00" noise="60.41" route="routeright" type="3" waiting="0.00" lane="right_1" pos="343.36" speed="0.20" angle="90.00" x="944.49" y="139.77"/>
        <vehicle id="3_4" eclass="HBEFA3/PC_G_EU4" CO2="2650.07" CO="161.83" HC="0.80" NOx="1.21" PMx="0.07" fuel="1.14" electricity="0.00" noise="60.35" route="routediverge" type="3" waiting="0.00" lane="diverge_0" pos="65.86" speed="0.20" angle="135.00" x="650.48" y="88.60"/>
        <vehicle id="4_0" eclass="HBEFA3/PC_G_EU4" CO2="2637.81" CO="162.21" HC="0.80" NOx="1.21" PMx="0.07" fuel="1.13" electricity="0.00" noise="59.54" route="routediverge" type="4" waiting="0.00" lane="diverge_0" pos="187.14" speed="0.16" angle="135.00" x="731.64" y="7.44"/>
        <vehicle id="4_1" eclass="HBEFA3/PC_G_EU4" CO2="2651.22" CO="161.80" HC="0.80" NOx="1.21" PMx="0.07" fuel="1.14" electricity="0.00" noise="60.41" route="routecenter" type="4" waiting="0.00" lane="center_0" pos="8.89" speed="0.20" angle="90.00" x="408.48" y="136.47"/>
        <vehicle id="4_2" eclass="HBEFA3/PC_G_EU4" CO2="2641.80" CO="162.07" HC="0.80" NOx="1.21" PMx="0.07" fuel="1.14" electricity="0.00" noise="59.83" route="routecenter" type="4" waiting="0.00" lane="center_1" pos="1.47" speed="0.17" angle="90.00" x="401.03" y="139.77"/>
        <vehicle id="4_3" eclass="HBEFA3/PC_G_EU4" CO2="2650.40" CO="161.82" HC="0.80" NOx="1.21" PMx="0.07" fuel="1.14" electricity="0.00" noise="60.37" route="routecenter" type="4" waiting="0.00" lane="center_0" pos="128.02" speed="0.20" angle="90.00" x="528.15" y="136.47"/>
        <vehicle id="4_4" eclass="HBEFA3/PC_G_EU4" CO2="2651.22" CO="161.80" HC="0.80" NOx="1.21" PMx="0.07" fuel="1.14" electricity="0.00" noise="60.41" route="routecenter" type="4" waiting="0.00" lane="center_1" pos="124.94" speed="0.20" angle="90.00" x="525.06" y="139.77"/>
    </timestep>
    <timestep time="0.60">
        <vehicle id="1_0" eclass="HBEFA3/PC_G_EU4" CO2="2678.34" CO="158.88" HC="0.79" NOx="1.22" PMx="0.07" fuel="1.15" electricity="0.00" noise="60.49" route="routemerge" type="1" waiting="0.00" lane="merge_0" pos="10.10" speed="0.40" angle="45.00" x="336.84" y="75.92"/>
        <vehicle id="1_1" eclass="HBEFA3/PC_G_EU4" CO2="2672.31" CO="158.92" HC="0.79" NOx="1.22" PMx="0.07" fuel="1.15" electricity="0.00" noise="60.28" route="routeinflow_merge" type="1" waiting="0.00" lane="inflow_merge_0" pos="27.05" speed="0.39" angle="45.00" x="278.88" y="17.96"/>
        <vehicle id="1_2" eclass="HBEFA3/PC_G_EU4" CO2="2673.07" CO="159.04" HC="0.79" NOx="1.22" PMx="0.07" fuel="1.15" electricity="0.00" noise="60.34" route="routeleft" type="1" waiting="0.00" lane="left_0" pos="47.29" speed="0.38" angle="90.00" x="146.03" y="136.47"/>
        <vehicle id="1_3" eclass="HBEFA3/PC_G_EU4" CO2="2651.67" CO="159.42" HC="0.79" NOx="1.21" PMx="0.06" fuel="1.14" electricity="0.00" noise="59.56" route="routeleft" type="1" waiting="0.00" lane="left_1" pos="39.73" speed="0.34" angle="90.00" x="138.67" y="139.77"/>
        <vehicle id="1_4" eclass="HBEFA3/PC_G_EU4" CO2="2678.34" CO="158.88" HC="0.79" NOx="1.22" PMx="0.07" fuel="1.15" electricity="0.00" noise="60.49" route="routeleft" type="1" waiting="0.00" lane="left_0" pos="172.57" speed="0.40" angle="90.00" x="267.98" y="136.47"/>
        <vehicle id="2_0" eclass="HBEFA3/PC_G_EU4" CO2="2671.09" CO="159.21" HC="0.79" NOx="1.22" PMx="0.07" fuel="1.15" electricity="0.00" noise="60.32" route="routeleft" type="2" waiting="0.00" lane="left_1" pos="160.85" speed="0.37" angle="90.00" x="256.57" y="139.77"/>
        <vehicle id="2_1" eclass="HBEFA3/PC_G_EU4" CO2="2648.00" CO="159.14" HC="0.79" NOx="1.21" PMx="0.06" fuel="1.14" electricity="0.00" noise="59.34" route="routeleft" type="2" waiting="0.00" lane="left_0" pos="283.59" speed="0.35" angle="90.00" x="376.05" y="136.47"/>
        <vehicle id="2_2" eclass="HBEFA3/PC_G_EU4" CO2="2678.33" CO="158.88" HC="0.79" NOx="1.22" PMx="0.07" fuel="1.15" electricity="0.00" noise="60.49" route="routeleft" type="2" waiting="0.00" lane="left_1" pos="285.12" speed="0.40" angle="90.00" x="377.54" y="139.77"/>
        <vehicle id="2_3" eclass="HBEFA3/PC_G_EU4" CO2="2663.99" CO="159.34" HC="0.79" NOx="1.21" PMx="0.07" fuel="1.15" electricity="0.00" noise="60.08" route="routeright" type="2" waiting="0.00" lane="right_0" pos="100.74" speed="0.36" angle="90.00" x="706.71" y="136.47"/>
        <vehicle id="2_4" eclass="HBEFA3/PC_G_EU4" CO2="2662.08" CO="159.19" HC="0.79" NOx="1.21" PMx="0.06" fuel="1.14" electricity="0.00" noise="59.96" route="routeright" type="2" waiting="0.00" lane="right_1" pos="105.80" speed="0.36" angle="90.00" x="711.67" y="139.77"/>
        <vehicle id="3_0" eclass="HBEFA3/PC_G_EU4" CO2="2670.14" CO="159.08" HC="0.79" NOx="1.22" PMx="0.07" fuel="1.15" electricity="0.00" noise="60.25" route="routeright" type="3" waiting="0.00" lane="right_0" pos="226.56" speed="0.38" angle="90.00" x="830.02" y="136.47"/>
        <vehicle id="3_1" eclass="HBEFA3/PC_G_EU4" CO2="2663.68" CO="159.03" HC="0.79" NOx="1.21" PMx="0.06" fuel="1.15" electricity="0.00" noise="59.98" route="routeright" type="3" waiting="0.00" lane="right_1" pos="227.34" speed="0.37" angle="90.00" x="830.78" y="139.77"/>
        <vehicle id="3_2" eclass="HBEFA3/PC_G_EU4" CO2="2675.20" CO="159.21" HC="0.79" NOx="1.22" PMx="0.07" fuel="1.15" electricity="0.00" noise="60.48" route="routeright" type="3" waiting="0.00" lane="right_0" pos="347.52" speed="0.38" angle="90.00" x="948.56" y="136.47"/>
        <vehicle id="3_3" eclass="HBEFA3/PC_G_EU4" CO2="2678.34" CO="158.88" HC="0.79" NOx="1.22" PMx="0.07" fuel="1.15" electricity="0.00" noise="60.49" route="routeright" type="3" waiting="0.00" lane="right_1" pos="343.44" speed="0.40" angle="90.00" x="944.57" y="139.77"/>
        <vehicle id="3_4" eclass="HBEFA3/PC_G_EU4" CO2="2652.76" CO="159.13" HC="0.79" NOx="1.21" PMx="0.06" fuel="1.14" electricity="0.00" noise="59.55" route="routediverge" type="3" waiting="0.00" lane="diverge_0" pos="65.93" speed="0.36" angle="135.00" x="650.53" y="88.56"/>
        <vehicle id="4_0" eclass="HBEFA3/PC_G_EU4" CO2="2645.03" CO="159.77" HC="0.79" NOx="1.21" PMx="0.06" fuel="1.14" electricity="0.00" noise="59.31" route="routediverge" type="4" waiting="0.00" lane="diverge_0" pos="187.20" speed="0.31" angle="135.00" x="731.69" y="7.40"/>
        <vehicle id="4_1" eclass="HBEFA3/PC_G_EU4" CO2="2634.78" CO="159.34" HC="0.79" NOx="1.20" PMx="0.06" fuel="1.13" electricity="0.00" noise="58.74" route="routecenter" type="4" waiting="0.00" lane="center_0" pos="8.96" speed="0.32" angle="90.00" x="408.55" y="136.47"/>
        <vehicle id="4_2" eclass="HBEFA3/PC_G_EU4" CO2="2674.77" CO="159.26" HC="0.79" NOx="1.22" PMx="0.07" fuel="1.15" electricity="0.00" noise="60.48" route="routecenter" type="4" waiting="0.00" lane="center_1" pos="1.54" speed="0.37" angle="90.00" x="401.10" y="139.77"/>
        <vehicle id="4_3" eclass="HBEFA3/PC_G_EU4" CO2="2678.06" CO="158.91" HC="0.79" NOx="1.22" PMx="0.07" fuel="1.15" electricity="0.00" noise="60.49" route="routecenter" type="4" waiting="0.00" lane="center_0" pos="128.10" speed="0.40" angle="90.00" x="528.23" y="136.47"/>
        <vehicle id="4_4" eclass="HBEFA3/PC_G_EU4" CO2="2678.34" CO="158.88" HC="0.79" NOx="1.22" PMx="0.07" fuel="1.15" electricity="0.00" noise="60.49" route="routecenter" type="4" waiting="0.00" lane="center_1" pos="125.02" speed="0.40" angle="90.00" x="525.14" y="139.77"/>
    </timestep>
    <timestep time="0.80">
        <vehicle id="1_0" eclass="HBEFA3/PC_G_EU4" CO2="2706.09" CO="156.00" HC="0.77" NOx="1.23" PMx="0.06" fuel="1.16" electricity="0.00" noise="60.57" route="routemerge" type="1" waiting="0.00" lane="merge_0" pos="10.22" speed="0.60" angle="45.00" x="336.91" y="76.00"/>
        <vehicle id="1_1" eclass="HBEFA3/PC_G_EU4" CO2="2662.14" CO="156.12" HC="0.77" NOx="1.21" PMx="0.06" fuel="1.14" electricity="0.00" noise="59.43" route="routeinflow_merge" type="1" waiting="0.00" lane="inflow_merge_0" pos="27.16" speed="0.54" angle="45.00" x="278.96" y="18.04"/>
        <vehicle id="1_2" eclass="HBEFA3/PC_G_EU4" CO2="2696.01" CO="156.21" HC="0.77" NOx="1.22" PMx="0.06" fuel="1.16" electricity="0.00" noise="60.36" route="routeleft" type="1" waiting="0.00" lane="left_0" pos="47.40" speed="0.58" angle="90.00" x="146.14" y="136.47"/>
        <vehicle id="1_3" eclass="HBEFA3/PC_G_EU4" CO2="2689.92" CO="156.90" HC="0.78" NOx="1.22" PMx="0.06" fuel="1.16" electricity="0.00" noise="60.34" route="routeleft" type="1" waiting="0.00" lane="left_1" pos="39.84" speed="0.53" angle="90.00" x="138.78" y="139.77"/>
        <vehicle id="1_4" eclass="HBEFA3/PC_G_EU4" CO2="2706.10" CO="156.00" HC="0.77" NOx="1.23" PMx="0.06" fuel="1.16" electricity="0.00" noise="60.57" route="routeleft" type="1" waiting="0.00" lane="left_0" pos="172.69" speed="0.60" angle="90.00" x="268.10" y="136.47"/>
        <vehicle id="2_0" eclass="HBEFA3/PC_G_EU4" CO2="2702.23" CO="156.39" HC="0.78" NOx="1.23" PMx="0.06" fuel="1.16" electricity="0.00" noise="60.56" route="routeleft" type="2" waiting="0.00" lane="left_1" pos="160.96" speed="0.57" angle="90.00" x="256.68" y="139.77"/>
        <vehicle id="2_1" eclass="HBEFA3/PC_G_EU4" CO2="2698.89" CO="156.73" HC="0.78" NOx="1.22" PMx="0.06" fuel="1.16" electricity="0.00" noise="60.55" route="routeleft" type="2" waiting="0.00" lane="left_0" pos="283.70" speed="0.55" angle="90.00" x="376.16" y="136.47"/>
        <vehicle id="2_2" eclass="HBEFA3/PC_G_EU4" CO2="2679.82" CO="155.97" HC="0.77" NOx="1.21" PMx="0.06" fuel="1.15" electricity="0.00" noise="59.90" route="routeleft" type="2" waiting="0.00" lane="left_1" pos="285.24" speed="0.57" angle="90.00" x="377.65" y="139.77"/>
        <vehicle id="2_3" eclass="HBEFA3/PC_G_EU4" CO2="2699.99" CO="156.62" HC="0.78" NOx="1.22" PMx="0.06" fuel="1.16" electricity="0.00" noise="60.55" route="routeright" type="2" waiting="0.00" lane="right_0" pos="100.85" speed="0.56" angle="90.00" x="706.82" y="136.47"/>
        <vehicle id="2_4" eclass="HBEFA3/PC_G_EU4" CO2="2700.89" CO="156.53" HC="0.78" NOx="1.22" PMx="0.06" fuel="1.16" electricity="0.00" noise="60.55" route="routeright" type="2" waiting="0.00" lane="right_1" pos="105.91" speed="0.56" angle="90.00" x="711.78" y="139.77"/>
        <vehicle id="3_0" eclass="HBEFA3/PC_G_EU4" CO2="2703.06" CO="156.31" HC="0.77" NOx="1.23" PMx="0.06" fuel="1.16" electricity="0.00" noise="60.56" route="routeright" type="3" waiting="0.00" lane="right_0" pos="226.67" speed="0.58" angle="90.00" x="830.13" y="136.47"/>
        <vehicle id="3_1" eclass="HBEFA3/PC_G_EU4" CO2="2667.52" CO="156.37" HC="0.77" NOx="1.21" PMx="0.06" fuel="1.15" electricity="0.00" noise="59.62" route="routeright" type="3" waiting="0.00" lane="right_1" pos="227.44" speed="0.53" angle="90.00" x="830.89" y="139.77"/>
        <vehicle id="3_2" eclass="HBEFA3/PC_G_EU4" CO2="2702.88" CO="156.33" HC="0.78" NOx="1.23" PMx="0.06" fuel="1.16" electricity="0.00" noise="60.56" route="routeright" type="3" waiting="0.00" lane="right_0" pos="347.63" speed="0.58" angle="90.00" x="948.68" y="136.47"/>
        <vehicle id="3_3" eclass="HBEFA3/PC_G_EU4" CO2="2706.10" CO="156.00" HC="0.77" NOx="1.23" PMx="0.06" fuel="1.16" electricity="0.00" noise="60.57" route="routeright" type="3" waiting="0.00" lane="right_1" pos="343.56" speed="0.60" angle="90.00" x="944.69" y="139.77"/>
        <vehicle id="3_4" eclass="HBEFA3/PC_G_EU4" CO2="2697.49" CO="156.64" HC="0.78" NOx="1.22" PMx="0.06" fuel="1.16" electricity="0.00" noise="60.49" route="routediverge" type="3" waiting="0.00" lane="diverge_0" pos="66.04" speed="0.55" angle="135.00" x="650.61" y="88.48"/>
        <vehicle id="4_0" eclass="HBEFA3/PC_G_EU4" CO2="2675.85" CO="157.33" HC="0.78" NOx="1.22" PMx="0.06" fuel="1.15" electricity="0.00" noise="60.02" route="routediverge" type="4" waiting="0.00" lane="diverge_0" pos="187.30" speed="0.49" angle="135.00" x="731.75" y="7.33"/>
        <vehicle id="4_1" eclass="HBEFA3/PC_G_EU4" CO2="2695.14" CO="157.12" HC="0.78" NOx="1.22" PMx="0.06" fuel="1.16" electricity="0.00" noise="60.54" route="routecenter" type="4" waiting="0.00" lane="center_0" pos="9.06" speed="0.52" angle="90.00" x="408.65" y="136.47"/>
        <vehicle id="4_2" eclass="HBEFA3/PC_G_EU4" CO2="2683.50" CO="156.36" HC="0.77" NOx="1.22" PMx="0.06" fuel="1.15" electricity="0.00" noise="60.06" route="routecenter" type="4" waiting="0.00" lane="center_1" pos="1.65" speed="0.55" angle="90.00" x="401.21" y="139.77"/>
        <vehicle id="4_3" eclass="HBEFA3/PC_G_EU4" CO2="2684.02" CO="156.00" HC="0.77" NOx="1.22" PMx="0.06" fuel="1.15" electricity="0.00" noise="60.02" route="routecenter" type="4" waiting="0.00" lane="center_0" pos="128.21" speed="0.57" angle="90.00" x="528.34" y="136.47"/>
        <vehicle id="4_4" eclass="HBEFA3/PC_G_EU4" CO2="2670.15" CO="155.97" HC="0.77" NOx="1.21" PMx="0.06" fuel="1.15" electricity="0.00" noise="59.64" route="routecenter" type="4" waiting="0.00" lane="center_1" pos="125.14" speed="0.56" angle="90.00" x="525.25" y="139.77"/>
    </timestep>
    <timestep time="1.00">
        <vehicle id="1_0" eclass="HBEFA3/PC_G_EU4" CO2="2732.43" CO="153.15" HC="0.76" NOx="1.23" PMx="0.06" fuel="1.17" electricity="0.00" noise="60.60" route="routemerge" type="1" waiting="0.00" lane="merge_0" pos="10.38" speed="0.80" angle="45.00" x="337.01" y="76.10"/>