<?xml version="1.0" encoding="UTF-8"?>

<!-- generated on Mon Nov 19 20:54:01 2018 by SUMO gui Version b'v0_31_0-812-g1d4338ab80'
<?xml version="1.0" encoding="UTF-8"?>

<configuration xmlns:xsi="http://www.w3.org/2001/XMLSchema-instance" xsi:noNamespaceSchemaLocation="http://sumo.dlr.de/xsd/sumoConfiguration.xsd">

    <input>
        <net-file value="/Users/barryfan/flow/flow/scenarios/debug/cfg/merge-baseline_20181119-2053591542689639.96018.net.xml"/>
        <route-files value="/Users/barryfan/flow/flow/scenarios/debug/cfg/merge-baseline_20181119-2053591542689639.96018.rou.xml"/>
        <additional-files value="/Users/barryfan/flow/flow/scenarios/debug/cfg/merge-baseline_20181119-2053591542689639.96018.add.xml"/>
    </input>

    <output>
        <emission-output value="./data/merge-baseline_20181119-2053591542689639.96018-emission.xml"/>
    </output>

    <time>
        <begin value="0"/>
        <step-length value="0.2"/>
    </time>

    <processing>
        <lateral-resolution value="0.2"/>
        <time-to-teleport value="-1"/>
    </processing>

    <report>
        <no-step-log value="true"/>
    </report>

    <traci_server>
        <remote-port value="63373"/>
    </traci_server>

    <gui_only>
        <gui-settings-file value="/Users/barryfan/flow/flow/scenarios/debug/cfg/merge-baseline_20181119-2053591542689639.96018.gui.cfg"/>
        <tracker-interval value="0.2"/>
    </gui_only>

</configuration>
-->

<emission-export xmlns:xsi="http://www.w3.org/2001/XMLSchema-instance" xsi:noNamespaceSchemaLocation="http://sumo.dlr.de/xsd/emission_file.xsd">
    <timestep time="0.00">
        <vehicle id="1_0" eclass="HBEFA3/PC_G_EU4" CO2="2624.72" CO="164.78" HC="0.81" NOx="1.20" PMx="0.07" fuel="1.13" electricity="0.00" noise="55.94" route="routemerge" type="1" waiting="0.00" lane="merge_0" pos="11.92" speed="0.00" angle="45.00" x="337.99" y="77.07"/>
        <vehicle id="1_1" eclass="HBEFA3/PC_G_EU4" CO2="2624.72" CO="164.78" HC="0.81" NOx="1.20" PMx="0.07" fuel="1.13" electricity="0.00" noise="55.94" route="routeleft" type="1" waiting="0.00" lane="left_0" pos="21.19" speed="0.00" angle="90.00" x="120.63" y="136.47"/>
        <vehicle id="1_2" eclass="HBEFA3/PC_G_EU4" CO2="2624.72" CO="164.78" HC="0.81" NOx="1.20" PMx="0.07" fuel="1.13" electricity="0.00" noise="55.94" route="routeleft" type="1" waiting="0.00" lane="left_1" pos="24.72" speed="0.00" angle="90.00" x="124.06" y="139.77"/>
        <vehicle id="1_3" eclass="HBEFA3/PC_G_EU4" CO2="2624.72" CO="164.78" HC="0.81" NOx="1.20" PMx="0.07" fuel="1.13" electricity="0.00" noise="55.94" route="routeleft" type="1" waiting="0.00" lane="left_0" pos="147.50" speed="0.00" angle="90.00" x="243.58" y="136.47"/>
        <vehicle id="1_4" eclass="HBEFA3/PC_G_EU4" CO2="2624.72" CO="164.78" HC="0.81" NOx="1.20" PMx="0.07" fuel="1.13" electricity="0.00" noise="55.94" route="routeleft" type="1" waiting="0.00" lane="left_1" pos="153.99" speed="0.00" angle="90.00" x="249.89" y="139.77"/>
        <vehicle id="2_0" eclass="HBEFA3/PC_G_EU4" CO2="2624.72" CO="164.78" HC="0.81" NOx="1.20" PMx="0.07" fuel="1.13" electricity="0.00" noise="55.94" route="routeleft" type="2" waiting="0.00" lane="left_0" pos="263.94" speed="0.00" angle="90.00" x="356.92" y="136.47"/>
        <vehicle id="2_1" eclass="HBEFA3/PC_G_EU4" CO2="2624.72" CO="164.78" HC="0.81" NOx="1.20" PMx="0.07" fuel="1.13" electricity="0.00" noise="55.94" route="routeleft" type="2" waiting="0.00" lane="left_1" pos="274.55" speed="0.00" angle="90.00" x="367.25" y="139.77"/>
        <vehicle id="2_2" eclass="HBEFA3/PC_G_EU4" CO2="2624.72" CO="164.78" HC="0.81" NOx="1.20" PMx="0.07" fuel="1.13" electricity="0.00" noise="55.94" route="routeinflow_highway" type="2" waiting="0.00" lane="inflow_highway_0" pos="90.91" speed="0.00" angle="90.00" x="90.91" y="136.47"/>
        <vehicle id="2_3" eclass="HBEFA3/PC_G_EU4" CO2="2624.72" CO="164.78" HC="0.81" NOx="1.20" PMx="0.07" fuel="1.13" electricity="0.00" noise="55.94" route="routeinflow_highway" type="2" waiting="0.00" lane="inflow_highway_1" pos="81.99" speed="0.00" angle="90.00" x="81.99" y="139.77"/>
        <vehicle id="2_4" eclass="HBEFA3/PC_G_EU4" CO2="2624.72" CO="164.78" HC="0.81" NOx="1.20" PMx="0.07" fuel="1.13" electricity="0.00" noise="55.94" route="routediverge" type="2" waiting="0.00" lane="diverge_0" pos="100.99" speed="0.00" angle="135.00" x="673.99" y="65.10"/>
        <vehicle id="3_0" eclass="HBEFA3/PC_G_EU4" CO2="2624.72" CO="164.78" HC="0.81" NOx="1.20" PMx="0.07" fuel="1.13" electricity="0.00" noise="55.94" route="routecenter" type="3" waiting="0.00" lane="center_0" pos="15.46" speed="0.00" angle="90.00" x="415.08" y="136.47"/>
        <vehicle id="3_1" eclass="HBEFA3/PC_G_EU4" CO2="2624.72" CO="164.78" HC="0.81" NOx="1.20" PMx="0.07" fuel="1.13" electricity="0.00" noise="55.94" route="routecenter" type="3" waiting="0.00" lane="center_1" pos="26.93" speed="0.00" angle="90.00" x="426.61" y="139.77"/>
        <vehicle id="3_2" eclass="HBEFA3/PC_G_EU4" CO2="2624.72" CO="164.78" HC="0.81" NOx="1.20" PMx="0.07" fuel="1.13" electricity="0.00" noise="55.94" route="routecenter" type="3" waiting="0.00" lane="center_0" pos="141.22" speed="0.00" angle="90.00" x="541.41" y="136.47"/>
        <vehicle id="3_3" eclass="HBEFA3/PC_G_EU4" CO2="2624.72" CO="164.78" HC="0.81" NOx="1.20" PMx="0.07" fuel="1.13" electricity="0.00" noise="55.94" route="routecenter" type="3" waiting="0.00" lane="center_1" pos="141.71" speed="0.00" angle="90.00" x="541.90" y="139.77"/>
        <vehicle id="3_4" eclass="HBEFA3/PC_G_EU4" CO2="2624.72" CO="164.78" HC="0.81" NOx="1.20" PMx="0.07" fuel="1.13" electricity="0.00" noise="55.94" route="routeinflow_merge" type="3" waiting="0.00" lane="inflow_merge_0" pos="62.54" speed="0.00" angle="45.00" x="303.97" y="43.05"/>
        <vehicle id="4_0" eclass="HBEFA3/PC_G_EU4" CO2="2624.72" CO="164.78" HC="0.81" NOx="1.20" PMx="0.07" fuel="1.13" electricity="0.00" noise="55.94" route="routeright" type="4" waiting="0.00" lane="right_0" pos="85.96" speed="0.00" angle="90.00" x="692.23" y="136.47"/>
        <vehicle id="4_1" eclass="HBEFA3/PC_G_EU4" CO2="2624.72" CO="164.78" HC="0.81" NOx="1.20" PMx="0.07" fuel="1.13" electricity="0.00" noise="55.94" route="routeright" type="4" waiting="0.00" lane="right_1" pos="83.06" speed="0.00" angle="90.00" x="689.39" y="139.77"/>
        <vehicle id="4_2" eclass="HBEFA3/PC_G_EU4" CO2="2624.72" CO="164.78" HC="0.81" NOx="1.20" PMx="0.07" fuel="1.13" electricity="0.00" noise="55.94" route="routeright" type="4" waiting="0.00" lane="right_0" pos="205.71" speed="0.00" angle="90.00" x="809.59" y="136.47"/>
        <vehicle id="4_3" eclass="HBEFA3/PC_G_EU4" CO2="2624.72" CO="164.78" HC="0.81" NOx="1.20" PMx="0.07" fuel="1.13" electricity="0.00" noise="55.94" route="routeright" type="4" waiting="0.00" lane="right_1" pos="205.78" speed="0.00" angle="90.00" x="809.65" y="139.77"/>
        <vehicle id="4_4" eclass="HBEFA3/PC_G_EU4" CO2="2624.72" CO="164.78" HC="0.81" NOx="1.20" PMx="0.07" fuel="1.13" electricity="0.00" noise="55.94" route="routeright" type="4" waiting="0.00" lane="right_0" pos="321.84" speed="0.00" angle="90.00" x="923.40" y="136.47"/>
    </timestep>
    <timestep time="0.20">
        <vehicle id="1_0" eclass="HBEFA3/PC_G_EU4" CO2="2624.72" CO="164.78" HC="0.81" NOx="1.20" PMx="0.07" fuel="1.13" electricity="0.00" noise="55.94" route="routemerge" type="1" waiting="0.00" lane="merge_0" pos="11.92" speed="0.00" angle="45.00" x="337.99" y="77.07"/>
        <vehicle id="1_1" eclass="HBEFA3/PC_G_EU4" CO2="2624.72" CO="164.78" HC="0.81" NOx="1.20" PMx="0.07" fuel="1.13" electricity="0.00" noise="55.94" route="routeleft" type="1" waiting="0.00" lane="left_0" pos="21.19" speed="0.00" angle="90.00" x="120.63" y="136.47"/>
        <vehicle id="1_2" eclass="HBEFA3/PC_G_EU4" CO2="2624.72" CO="164.78" HC="0.81" NOx="1.20" PMx="0.07" fuel="1.13" electricity="0.00" noise="55.94" route="routeleft" type="1" waiting="0.00" lane="left_1" pos="24.72" speed="0.00" angle="90.00" x="124.06" y="139.77"/>
        <vehicle id="1_3" eclass="HBEFA3/PC_G_EU4" CO2="2624.72" CO="164.78" HC="0.81" NOx="1.20" PMx="0.07" fuel="1.13" electricity="0.00" noise="55.94" route="routeleft" type="1" waiting="0.00" lane="left_0" pos="147.50" speed="0.00" angle="90.00" x="243.58" y="136.47"/>
        <vehicle id="1_4" eclass="HBEFA3/PC_G_EU4" CO2="2624.72" CO="164.78" HC="0.81" NOx="1.20" PMx="0.07" fuel="1.13" electricity="0.00" noise="55.94" route="routeleft" type="1" waiting="0.00" lane="left_1" pos="153.99" speed="0.00" angle="90.00" x="249.89" y="139.77"/>
        <vehicle id="2_0" eclass="HBEFA3/PC_G_EU4" CO2="2624.72" CO="164.78" HC="0.81" NOx="1.20" PMx="0.07" fuel="1.13" electricity="0.00" noise="55.94" route="routeleft" type="2" waiting="0.00" lane="left_0" pos="263.94" speed="0.00" angle="90.00" x="356.92" y="136.47"/>
        <vehicle id="2_1" eclass="HBEFA3/PC_G_EU4" CO2="2624.72" CO="164.78" HC="0.81" NOx="1.20" PMx="0.07" fuel="1.13" electricity="0.00" noise="55.94" route="routeleft" type="2" waiting="0.00" lane="left_1" pos="274.55" speed="0.00" angle="90.00" x="367.25" y="139.77"/>
        <vehicle id="2_2" eclass="HBEFA3/PC_G_EU4" CO2="2624.72" CO="164.78" HC="0.81" NOx="1.20" PMx="0.07" fuel="1.13" electricity="0.00" noise="55.94" route="routeinflow_highway" type="2" waiting="0.00" lane="inflow_highway_0" pos="90.91" speed="0.00" angle="90.00" x="90.91" y="136.47"/>
        <vehicle id="2_3" eclass="HBEFA3/PC_G_EU4" CO2="2624.72" CO="164.78" HC="0.81" NOx="1.20" PMx="0.07" fuel="1.13" electricity="0.00" noise="55.94" route="routeinflow_highway" type="2" waiting="0.00" lane="inflow_highway_1" pos="81.99" speed="0.00" angle="90.00" x="81.99" y="139.77"/>
        <vehicle id="2_4" eclass="HBEFA3/PC_G_EU4" CO2="2624.72" CO="164.78" HC="0.81" NOx="1.20" PMx="0.07" fuel="1.13" electricity="0.00" noise="55.94" route="routediverge" type="2" waiting="0.00" lane="diverge_0" pos="100.99" speed="0.00" angle="135.00" x="673.99" y="65.10"/>
        <vehicle id="3_0" eclass="HBEFA3/PC_G_EU4" CO2="2624.72" CO="164.78" HC="0.81" NOx="1.20" PMx="0.07" fuel="1.13" electricity="0.00" noise="55.94" route="routecenter" type="3" waiting="0.00" lane="center_0" pos="15.46" speed="0.00" angle="90.00" x="415.08" y="136.47"/>
        <vehicle id="3_1" eclass="HBEFA3/PC_G_EU4" CO2="2624.72" CO="164.78" HC="0.81" NOx="1.20" PMx="0.07" fuel="1.13" electricity="0.00" noise="55.94" route="routecenter" type="3" waiting="0.00" lane="center_1" pos="26.93" speed="0.00" angle="90.00" x="426.61" y="139.77"/>
        <vehicle id="3_2" eclass="HBEFA3/PC_G_EU4" CO2="2624.72" CO="164.78" HC="0.81" NOx="1.20" PMx="0.07" fuel="1.13" electricity="0.00" noise="55.94" route="routecenter" type="3" waiting="0.00" lane="center_0" pos="141.22" speed="0.00" angle="90.00" x="541.41" y="136.47"/>
        <vehicle id="3_3" eclass="HBEFA3/PC_G_EU4" CO2="2624.72" CO="164.78" HC="0.81" NOx="1.20" PMx="0.07" fuel="1.13" electricity="0.00" noise="55.94" route="routecenter" type="3" waiting="0.00" lane="center_1" pos="141.71" speed="0.00" angle="90.00" x="541.90" y="139.77"/>
        <vehicle id="3_4" eclass="HBEFA3/PC_G_EU4" CO2="2624.72" CO="164.78" HC="0.81" NOx="1.20" PMx="0.07" fuel="1.13" electricity="0.00" noise="55.94" route="routeinflow_merge" type="3" waiting="0.00" lane="inflow_merge_0" pos="62.54" speed="0.00" angle="45.00" x="303.97" y="43.05"/>
        <vehicle id="4_0" eclass="HBEFA3/PC_G_EU4" CO2="2624.72" CO="164.78" HC="0.81" NOx="1.20" PMx="0.07" fuel="1.13" electricity="0.00" noise="55.94" route="routeright" type="4" waiting="0.00" lane="right_0" pos="85.96" speed="0.00" angle="90.00" x="692.23" y="136.47"/>
        <vehicle id="4_1" eclass="HBEFA3/PC_G_EU4" CO2="2624.72" CO="164.78" HC="0.81" NOx="1.20" PMx="0.07" fuel="1.13" electricity="0.00" noise="55.94" route="routeright" type="4" waiting="0.00" lane="right_1" pos="83.06" speed="0.00" angle="90.00" x="689.39" y="139.77"/>
        <vehicle id="4_2" eclass="HBEFA3/PC_G_EU4" CO2="2624.72" CO="164.78" HC="0.81" NOx="1.20" PMx="0.07" fuel="1.13" electricity="0.00" noise="55.94" route="routeright" type="4" waiting="0.00" lane="right_0" pos="205.71" speed="0.00" angle="90.00" x="809.59" y="136.47"/>
        <vehicle id="4_3" eclass="HBEFA3/PC_G_EU4" CO2="2624.72" CO="164.78" HC="0.81" NOx="1.20" PMx="0.07" fuel="1.13" electricity="0.00" noise="55.94" route="routeright" type="4" waiting="0.00" lane="right_1" pos="205.78" speed="0.00" angle="90.00" x="809.65" y="139.77"/>
        <vehicle id="4_4" eclass="HBEFA3/PC_G_EU4" CO2="2624.72" CO="164.78" HC="0.81" NOx="1.20" PMx="0.07" fuel="1.13" electricity="0.00" noise="55.94" route="routeright" type="4" waiting="0.00" lane="right_0" pos="321.84" speed="0.00" angle="90.00" x="923.40" y="136.47"/>
    </timestep>
    <timestep time="0.40">
        <vehicle id="1_0" eclass="HBEFA3/PC_G_EU4" CO2="2634.46" CO="162.36" HC="0.80" NOx="1.20" PMx="0.07" fuel="1.13" electricity="0.00" noise="59.27" route="routemerge" type="1" waiting="0.00" lane="merge_0" pos="11.95" speed="0.15" angle="45.00" x="338.01" y="77.09"/>
        <vehicle id="1_1" eclass="HBEFA3/PC_G_EU4" CO2="2647.62" CO="161.90" HC="0.80" NOx="1.21" PMx="0.07" fuel="1.14" electricity="0.00" noise="60.20" route="routeleft" type="1" waiting="0.00" lane="left_0" pos="21.23" speed="0.19" angle="90.00" x="120.67" y="136.47"/>
        <vehicle id="1_2" eclass="HBEFA3/PC_G_EU4" CO2="2633.25" CO="162.42" HC="0.80" NOx="1.20" PMx="0.07" fuel="1.13" electricity="0.00" noise="59.16" route="routeleft" type="1" waiting="0.00" lane="left_1" pos="24.75" speed="0.14" angle="90.00" x="124.09" y="139.77"/>
        <vehicle id="1_3" eclass="HBEFA3/PC_G_EU4" CO2="2651.22" CO="161.80" HC="0.80" NOx="1.21" PMx="0.07" fuel="1.14" electricity="0.00" noise="60.41" route="routeleft" type="1" waiting="0.00" lane="left_0" pos="147.54" speed="0.20" angle="90.00" x="243.62" y="136.47"/>
        <vehicle id="1_4" eclass="HBEFA3/PC_G_EU4" CO2="2651.22" CO="161.80" HC="0.80" NOx="1.21" PMx="0.07" fuel="1.14" electricity="0.00" noise="60.41" route="routeleft" type="1" waiting="0.00" lane="left_1" pos="154.03" speed="0.20" angle="90.00" x="249.93" y="139.77"/>
        <vehicle id="2_0" eclass="HBEFA3/PC_G_EU4" CO2="2651.22" CO="161.80" HC="0.80" NOx="1.21" PMx="0.07" fuel="1.14" electricity="0.00" noise="60.41" route="routeleft" type="2" waiting="0.00" lane="left_0" pos="263.98" speed="0.20" angle="90.00" x="356.96" y="136.47"/>
        <vehicle id="2_1" eclass="HBEFA3/PC_G_EU4" CO2="2649.77" CO="161.84" HC="0.80" NOx="1.21" PMx="0.07" fuel="1.14" electricity="0.00" noise="60.33" route="routeleft" type="2" waiting="0.00" lane="left_1" pos="274.59" speed="0.20" angle="90.00" x="367.28" y="139.77"/>
        <vehicle id="2_2" eclass="HBEFA3/PC_G_EU4" CO2="2651.22" CO="161.80" HC="0.80" NOx="1.21" PMx="0.07" fuel="1.14" electricity="0.00" noise="60.41" route="!2_2!var#1" type="2" waiting="0.00" lane="inflow_highway_0" pos="90.95" speed="0.20" angle="90.00" x="90.95" y="136.47"/>
        <vehicle id="2_3" eclass="HBEFA3/PC_G_EU4" CO2="2640.25" CO="162.12" HC="0.80" NOx="1.21" PMx="0.07" fuel="1.14" electricity="0.00" noise="59.72" route="!2_3!var#1" type="2" waiting="0.00" lane="inflow_highway_1" pos="82.03" speed="0.17" angle="90.00" x="82.03" y="139.77"/>
        <vehicle id="2_4" eclass="HBEFA3/PC_G_EU4" CO2="2643.24" CO="162.02" HC="0.80" NOx="1.21" PMx="0.07" fuel="1.14" electricity="0.00" noise="59.93" route="routediverge" type="2" waiting="0.00" lane="diverge_0" pos="101.02" speed="0.18" angle="135.00" x="674.01" y="65.07"/>
        <vehicle id="3_0" eclass="HBEFA3/PC_G_EU4" CO2="2648.90" CO="161.86" HC="0.80" NOx="1.21" PMx="0.07" fuel="1.14" electricity="0.00" noise="60.28" route="routecenter" type="3" waiting="0.00" lane="center_0" pos="15.49" speed="0.19" angle="90.00" x="415.11" y="136.47"/>
        <vehicle id="3_1" eclass="HBEFA3/PC_G_EU4" CO2="2637.74" CO="162.22" HC="0.80" NOx="1.21" PMx="0.07" fuel="1.13" electricity="0.00" noise="59.54" route="routecenter" type="3" waiting="0.00" lane="center_1" pos="26.97" speed="0.16" angle="90.00" x="426.64" y="139.77"/>
        <vehicle id="3_2" eclass="HBEFA3/PC_G_EU4" CO2="2651.22" CO="161.80" HC="0.80" NOx="1.21" PMx="0.07" fuel="1.14" electricity="0.00" noise="60.41" route="routecenter" type="3" waiting="0.00" lane="center_0" pos="141.26" speed="0.20" angle="90.00" x="541.45" y="136.47"/>
        <vehicle id="3_3" eclass="HBEFA3/PC_G_EU4" CO2="2651.22" CO="161.80" HC="0.80" NOx="1.21" PMx="0.07" fuel="1.14" electricity="0.00" noise="60.41" route="routecenter" type="3" waiting="0.00" lane="center_1" pos="141.75" speed="0.20" angle="90.00" x="541.94" y="139.77"/>
        <vehicle id="3_4" eclass="HBEFA3/PC_G_EU4" CO2="2651.22" CO="161.80" HC="0.80" NOx="1.21" PMx="0.07" fuel="1.14" electricity="0.00" noise="60.41" route="routeinflow_merge" type="3" waiting="0.00" lane="inflow_merge_0" pos="62.58" speed="0.20" angle="45.00" x="304.00" y="43.08"/>
        <vehicle id="4_0" eclass="HBEFA3/PC_G_EU4" CO2="2651.22" CO="161.80" HC="0.80" NOx="1.21" PMx="0.07" fuel="1.14" electricity="0.00" noise="60.41" route="routeright" type="4" waiting="0.00" lane="right_0" pos="86.00" speed="0.20" angle="90.00" x="692.27" y="136.47"/>
        <vehicle id="4_1" eclass="HBEFA3/PC_G_EU4" CO2="2647.19" CO="161.91" HC="0.80" NOx="1.21" PMx="0.07" fuel="1.14" electricity="0.00" noise="60.18" route="routeright" type="4" waiting="0.00" lane="right_1" pos="83.10" speed="0.19" angle="90.00" x="689.42" y="139.77"/>
        <vehicle id="4_2" eclass="HBEFA3/PC_G_EU4" CO2="2651.22" CO="161.80" HC="0.80" NOx="1.21" PMx="0.07" fuel="1.14" electricity="0.00" noise="60.41" route="routeright" type="4" waiting="0.00" lane="right_0" pos="205.75" speed="0.20" angle="90.00" x="809.63" y="136.47"/>
        <vehicle id="4_3" eclass="HBEFA3/PC_G_EU4" CO2="2651.22" CO="161.80" HC="0.80" NOx="1.21" PMx="0.07" fuel="1.14" electricity="0.00" noise="60.41" route="routeright" type="4" waiting="0.00" lane="right_1" pos="205.82" speed="0.20" angle="90.00" x="809.69" y="139.77"/>
        <vehicle id="4_4" eclass="HBEFA3/PC_G_EU4" CO2="2651.22" CO="161.80" HC="0.80" NOx="1.21" PMx="0.07" fuel="1.14" electricity="0.00" noise="60.41" route="routeright" type="4" waiting="0.00" lane="right_0" pos="321.88" speed="0.20" angle="90.00" x="923.44" y="136.47"/>
    </timestep>
    <timestep time="0.60">
        <vehicle id="1_0" eclass="HBEFA3/PC_G_EU4" CO2="2630.99" CO="160.25" HC="0.79" NOx="1.20" PMx="0.06" fuel="1.13" electricity="0.00" noise="58.59" route="routemerge" type="1" waiting="0.00" lane="merge_0" pos="12.01" speed="0.26" angle="45.00" x="338.04" y="77.12"/>
        <vehicle id="1_1" eclass="HBEFA3/PC_G_EU4" CO2="2677.05" CO="159.01" HC="0.79" NOx="1.22" PMx="0.07" fuel="1.15" electricity="0.00" noise="60.49" route="routeleft" type="1" waiting="0.00" lane="left_0" pos="21.31" speed="0.39" angle="90.00" x="120.74" y="136.47"/>
        <vehicle id="1_2" eclass="HBEFA3/PC_G_EU4" CO2="2656.21" CO="159.85" HC="0.79" NOx="1.21" PMx="0.07" fuel="1.14" electricity="0.00" noise="59.88" route="routeleft" type="1" waiting="0.00" lane="left_1" pos="24.81" speed="0.32" angle="90.00" x="124.15" y="139.77"/>
        <vehicle id="1_3" eclass="HBEFA3/PC_G_EU4" CO2="2678.34" CO="158.88" HC="0.79" NOx="1.22" PMx="0.07" fuel="1.15" electricity="0.00" noise="60.49" route="routeleft" type="1" waiting="0.00" lane="left_0" pos="147.62" speed="0.40" angle="90.00" x="243.69" y="136.47"/>
        <vehicle id="1_4" eclass="HBEFA3/PC_G_EU4" CO2="2668.44" CO="158.94" HC="0.79" NOx="1.21" PMx="0.06" fuel="1.15" electricity="0.00" noise="60.14" route="routeleft" type="1" waiting="0.00" lane="left_1" pos="154.11" speed="0.38" angle="90.00" x="250.01" y="139.77"/>
        <vehicle id="2_0" eclass="HBEFA3/PC_G_EU4" CO2="2654.52" CO="159.07" HC="0.79" NOx="1.21" PMx="0.06" fuel="1.14" electricity="0.00" noise="59.61" route="routeleft" type="2" waiting="0.00" lane="left_0" pos="264.05" speed="0.36" angle="90.00" x="357.03" y="136.47"/>
        <vehicle id="2_1" eclass="HBEFA3/PC_G_EU4" CO2="2677.83" CO="158.93" HC="0.79" NOx="1.22" PMx="0.07" fuel="1.15" electricity="0.00" noise="60.49" route="routeleft" type="2" waiting="0.00" lane="left_1" pos="274.67" speed="0.40" angle="90.00" x="367.36" y="139.77"/>
        <vehicle id="2_2" eclass="HBEFA3/PC_G_EU4" CO2="2678.34" CO="158.88" HC="0.79" NOx="1.22" PMx="0.07" fuel="1.15" electricity="0.00" noise="60.49" route="!2_2!var#1" type="2" waiting="0.00" lane="inflow_highway_0" pos="91.03" speed="0.40" angle="90.00" x="91.03" y="136.47"/>
        <vehicle id="2_3" eclass="HBEFA3/PC_G_EU4" CO2="2658.40" CO="159.47" HC="0.79" NOx="1.21" PMx="0.06" fuel="1.14" electricity="0.00" noise="59.87" route="!2_3!var#1" type="2" waiting="0.00" lane="inflow_highway_1" pos="82.10" speed="0.34" angle="90.00" x="82.10" y="139.77"/>
        <vehicle id="2_4" eclass="HBEFA3/PC_G_EU4" CO2="2675.36" CO="159.20" HC="0.79" NOx="1.22" PMx="0.07" fuel="1.15" electricity="0.00" noise="60.48" route="routediverge" type="2" waiting="0.00" lane="diverge_0" pos="101.10" speed="0.38" angle="135.00" x="674.06" y="65.02"/>
        <vehicle id="3_0" eclass="HBEFA3/PC_G_EU4" CO2="2668.88" CO="159.02" HC="0.79" NOx="1.21" PMx="0.07" fuel="1.15" electricity="0.00" noise="60.18" route="routecenter" type="3" waiting="0.00" lane="center_0" pos="15.57" speed="0.38" angle="90.00" x="415.19" y="136.47"/>
        <vehicle id="3_1" eclass="HBEFA3/PC_G_EU4" CO2="2672.97" CO="159.45" HC="0.79" NOx="1.22" PMx="0.07" fuel="1.15" electricity="0.00" noise="60.48" route="routecenter" type="3" waiting="0.00" lane="center_1" pos="27.04" speed="0.36" angle="90.00" x="426.71" y="139.77"/>
        <vehicle id="3_2" eclass="HBEFA3/PC_G_EU4" CO2="2656.24" CO="159.05" HC="0.79" NOx="1.21" PMx="0.06" fuel="1.14" electricity="0.00" noise="59.68" route="routecenter" type="3" waiting="0.00" lane="center_0" pos="141.33" speed="0.36" angle="90.00" x="541.52" y="136.47"/>
        <vehicle id="3_3" eclass="HBEFA3/PC_G_EU4" CO2="2678.34" CO="158.88" HC="0.79" NOx="1.22" PMx="0.07" fuel="1.15" electricity="0.00" noise="60.49" route="routecenter" type="3" waiting="0.00" lane="center_1" pos="141.83" speed="0.40" angle="90.00" x="542.02" y="139.77"/>
        <vehicle id="3_4" eclass="HBEFA3/PC_G_EU4" CO2="2678.34" CO="158.88" HC="0.79" NOx="1.22" PMx="0.07" fuel="1.15" electricity="0.00" noise="60.49" route="routeinflow_merge" type="3" waiting="0.00" lane="inflow_merge_0" pos="62.66" speed="0.40" angle="45.00" x="304.06" y="43.14"/>
        <vehicle id="4_0" eclass="HBEFA3/PC_G_EU4" CO2="2678.34" CO="158.88" HC="0.79" NOx="1.22" PMx="0.07" fuel="1.15" electricity="0.00" noise="60.49" route="routeright" type="4" waiting="0.00" lane="right_0" pos="86.08" speed="0.40" angle="90.00" x="692.35" y="136.47"/>
        <vehicle id="4_1" eclass="HBEFA3/PC_G_EU4" CO2="2659.17" CO="159.17" HC="0.79" NOx="1.21" PMx="0.06" fuel="1.14" electricity="0.00" noise="59.83" route="routeright" type="4" waiting="0.00" lane="right_1" pos="83.17" speed="0.36" angle="90.00" x="689.49" y="139.77"/>
        <vehicle id="4_2" eclass="HBEFA3/PC_G_EU4" CO2="2678.34" CO="158.88" HC="0.79" NOx="1.22" PMx="0.07" fuel="1.15" electricity="0.00" noise="60.49" route="routeright" type="4" waiting="0.00" lane="right_0" pos="205.83" speed="0.40" angle="90.00" x="809.71" y="136.47"/>
        <vehicle id="4_3" eclass="HBEFA3/PC_G_EU4" CO2="2678.34" CO="158.88" HC="0.79" NOx="1.22" PMx="0.07" fuel="1.15" electricity="0.00" noise="60.49" route="routeright" type="4" waiting="0.00" lane="right_1" pos="205.90" speed="0.40" angle="90.00" x="809.77" y="139.77"/>
        <vehicle id="4_4" eclass="HBEFA3/PC_G_EU4" CO2="2648.16" CO="159.14" HC="0.79" NOx="1.21" PMx="0.06" fuel="1.14" electricity="0.00" noise="59.35" route="routeright" type="4" waiting="0.00" lane="right_0" pos="321.95" speed="0.35" angle="90.00" x="923.50" y="136.47"/>
    </timestep>
    <timestep time="0.80">
        <vehicle id="1_0" eclass="HBEFA3/PC_G_EU4" CO2="2687.29" CO="157.94" HC="0.78" NOx="1.22" PMx="0.07" fuel="1.16" electricity="0.00" noise="60.51" route="routemerge" type="1" waiting="0.00" lane="merge_0" pos="12.10" speed="0.46" angle="45.00" x="338.10" y="77.18"/>
        <vehicle id="1_1" eclass="HBEFA3/PC_G_EU4" CO2="2704.78" CO="156.13" HC="0.77" NOx="1.23" PMx="0.06" fuel="1.16" electricity="0.00" noise="60.56" route="routeleft" type="1" waiting="0.00" lane="left_0" pos="21.43" speed="0.59" angle="90.00" x="120.86" y="136.47"/>
        <vehicle id="1_2" eclass="HBEFA3/PC_G_EU4" CO2="2694.61" CO="157.18" HC="0.78" NOx="1.22" PMx="0.06" fuel="1.16" electricity="0.00" noise="60.53" route="routeleft" type="1" waiting="0.00" lane="left_1" pos="24.91" speed="0.52" angle="90.00" x="124.25" y="139.77"/>
        <vehicle id="1_3" eclass="HBEFA3/PC_G_EU4" CO2="2706.10" CO="156.00" HC="0.77" NOx="1.23" PMx="0.06" fuel="1.16" electricity="0.00" noise="60.57" route="routeleft" type="1" waiting="0.00" lane="left_0" pos="147.74" speed="0.60" angle="90.00" x="243.81" y="136.47"/>
        <vehicle id="1_4" eclass="HBEFA3/PC_G_EU4" CO2="2703.92" CO="156.22" HC="0.77" NOx="1.23" PMx="0.06" fuel="1.16" electricity="0.00" noise="60.56" route="routeleft" type="1" waiting="0.00" lane="left_1" pos="154.22" speed="0.58" angle="90.00" x="250.12" y="139.77"/>
        <vehicle id="2_0" eclass="HBEFA3/PC_G_EU4" CO2="2700.59" CO="156.56" HC="0.78" NOx="1.22" PMx="0.06" fuel="1.16" electricity="0.00" noise="60.55" route="routeleft" type="2" waiting="0.00" lane="left_0" pos="264.17" speed="0.56" angle="90.00" x="357.14" y="136.47"/>
        <vehicle id="2_1" eclass="HBEFA3/PC_G_EU4" CO2="2705.57" CO="156.05" HC="0.77" NOx="1.23" PMx="0.06" fuel="1.16" electricity="0.00" noise="60.56" route="routeleft" type="2" waiting="0.00" lane="left_1" pos="274.79" speed="0.60" angle="90.00" x="367.48" y="139.77"/>
        <vehicle id="2_2" eclass="HBEFA3/PC_G_EU4" CO2="2655.07" CO="155.99" HC="0.77" NOx="1.20" PMx="0.06" fuel="1.14" electricity="0.00" noise="59.21" route="!2_2!var#1" type="2" waiting="0.00" lane="inflow_highway_0" pos="91.14" speed="0.54" angle="90.00" x="91.14" y="136.47"/>
        <vehicle id="2_3" eclass="HBEFA3/PC_G_EU4" CO2="2695.30" CO="156.83" HC="0.78" NOx="1.22" PMx="0.06" fuel="1.16" electricity="0.00" noise="60.47" route="!2_3!var#1" type="2" waiting="0.00" lane="inflow_highway_1" pos="82.20" speed="0.54" angle="90.00" x="82.20" y="139.77"/>
        <vehicle id="2_4" eclass="HBEFA3/PC_G_EU4" CO2="2703.04" CO="156.31" HC="0.77" NOx="1.23" PMx="0.06" fuel="1.16" electricity="0.00" noise="60.56" route="routediverge" type="2" waiting="0.00" lane="diverge_0" pos="101.21" speed="0.58" angle="135.00" x="674.14" y="64.94"/>
        <vehicle id="3_0" eclass="HBEFA3/PC_G_EU4" CO2="2673.07" CO="156.27" HC="0.77" NOx="1.21" PMx="0.06" fuel="1.15" electricity="0.00" noise="59.76" route="routecenter" type="3" waiting="0.00" lane="center_0" pos="15.68" speed="0.54" angle="90.00" x="415.30" y="136.47"/>
        <vehicle id="3_1" eclass="HBEFA3/PC_G_EU4" CO2="2700.60" CO="156.56" HC="0.78" NOx="1.22" PMx="0.06" fuel="1.16" electricity="0.00" noise="60.55" route="routecenter" type="3" waiting="0.00" lane="center_1" pos="27.15" speed="0.56" angle="90.00" x="426.82" y="139.77"/>
        <vehicle id="3_2" eclass="HBEFA3/PC_G_EU4" CO2="2657.41" CO="156.55" HC="0.77" NOx="1.21" PMx="0.06" fuel="1.14" electricity="0.00" noise="59.34" route="routecenter" type="3" waiting="0.00" lane="center_0" pos="141.44" speed="0.51" angle="90.00" x="541.62" y="136.47"/>
        <vehicle id="3_3" eclass="HBEFA3/PC_G_EU4" CO2="2632.69" CO="156.06" HC="0.77" NOx="1.19" PMx="0.06" fuel="1.13" electricity="0.00" noise="58.52" route="routecenter" type="3" waiting="0.00" lane="center_1" pos="141.93" speed="0.51" angle="90.00" x="542.12" y="139.77"/>
        <vehicle id="3_4" eclass="HBEFA3/PC_G_EU4" CO2="2706.08" CO="156.00" HC="0.77" NOx="1.23" PMx="0.06" fuel="1.16" electricity="0.00" noise="60.57" route="routeinflow_merge" type="3" waiting="0.00" lane="inflow_merge_0" pos="62.78" speed="0.60" angle="45.00" x="304.14" y="43.22"/>
        <vehicle id="4_0" eclass="HBEFA3/PC_G_EU4" CO2="2691.94" CO="155.98" HC="0.77" NOx="1.22" PMx="0.06" fuel="1.16" electricity="0.00" noise="60.21" route="routeright" type="4" waiting="0.00" lane="right_0" pos="86.20" speed="0.58" angle="90.00" x="692.46" y="136.47"/>
        <vehicle id="4_1" eclass="HBEFA3/PC_G_EU4" CO2="2700.52" CO="156.57" HC="0.78" NOx="1.22" PMx="0.06" fuel="1.16" electricity="0.00" noise="60.55" route="routeright" type="4" waiting="0.00" lane="right_1" pos="83.29" speed="0.56" angle="90.00" x="689.60" y="139.77"/>
        <vehicle id="4_2" eclass="HBEFA3/PC_G_EU4" CO2="2706.10" CO="156.00" HC="0.77" NOx="1.23" PMx="0.06" fuel="1.16" electricity="0.00" noise="60.57" route="routeright" type="4" waiting="0.00" lane="right_0" pos="205.95" speed="0.60" angle="90.00" x="809.82" y="136.47"/>
        <vehicle id="4_3" eclass="HBEFA3/PC_G_EU4" CO2="2639.74" CO="156.03" HC="0.77" NOx="1.20" PMx="0.06" fuel="1.13" electricity="0.00" noise="58.75" route="routeright" type="4" waiting="0.00" lane="right_1" pos="206.00" speed="0.52" angle="90.00" x="809.87" y="139.77"/>
        <vehicle id="4_4" eclass="HBEFA3/PC_G_EU4" CO2="2669.86" CO="156.75" HC="0.78" NOx="1.21" PMx="0.06" fuel="1.15" electricity="0.00" noise="59.74" route="routeright" type="4" waiting="0.00" lane="right_0" pos="322.05" speed="0.51" angle="90.00" x="923.60" y="136.47"/>
    </timestep>
    <timestep time="1.00">
        <vehicle id="1_0" eclass="HBEFA3/PC_G_EU4" CO2="2715.24" CO="155.07" HC="0.77" NOx="1.23" PMx="0.06" fuel="1.17" electricity="0.00" noise="60.59" route="routemerge" type="1" waiting="0.00" lane="merge_0" pos="12.23" speed="0.66" angle="45.00" x="338.18" y="77.26"/>