<?xml version="1.0" encoding="UTF-8"?>

<!-- generated on Mon Nov 19 20:55:24 2018 by SUMO gui Version b'v0_31_0-812-g1d4338ab80'
<?xml version="1.0" encoding="UTF-8"?>

<configuration xmlns:xsi="http://www.w3.org/2001/XMLSchema-instance" xsi:noNamespaceSchemaLocation="http://sumo.dlr.de/xsd/sumoConfiguration.xsd">

    <input>
        <net-file value="/Users/barryfan/flow/flow/scenarios/debug/cfg/merge-baseline_20181119-2055231542689723.337601.net.xml"/>
        <route-files value="/Users/barryfan/flow/flow/scenarios/debug/cfg/merge-baseline_20181119-2055231542689723.337601.rou.xml"/>
        <additional-files value="/Users/barryfan/flow/flow/scenarios/debug/cfg/merge-baseline_20181119-2055231542689723.337601.add.xml"/>
    </input>

    <output>
        <emission-output value="./data/merge-baseline_20181119-2055231542689723.337601-emission.xml"/>
    </output>

    <time>
        <begin value="0"/>
        <step-length value="0.2"/>
    </time>

    <processing>
        <lateral-resolution value="0.2"/>
        <time-to-teleport value="-1"/>
    </processing>

    <report>
        <no-step-log value="true"/>
    </report>

    <traci_server>
        <remote-port value="63384"/>
    </traci_server>

    <gui_only>
        <gui-settings-file value="/Users/barryfan/flow/flow/scenarios/debug/cfg/merge-baseline_20181119-2055231542689723.337601.gui.cfg"/>
        <tracker-interval value="0.2"/>
    </gui_only>

</configuration>
-->

<emission-export xmlns:xsi="http://www.w3.org/2001/XMLSchema-instance" xsi:noNamespaceSchemaLocation="http://sumo.dlr.de/xsd/emission_file.xsd">
    <timestep time="0.00">
        <vehicle id="1_0" eclass="HBEFA3/PC_G_EU4" CO2="2624.72" CO="164.78" HC="0.81" NOx="1.20" PMx="0.07" fuel="1.13" electricity="0.00" noise="55.94" route="routeright" type="1" waiting="0.00" lane="right_0" pos="0.00" speed="0.00" angle="90.00" x="607.98" y="136.47"/>
        <vehicle id="1_1" eclass="HBEFA3/PC_G_EU4" CO2="2624.72" CO="164.78" HC="0.81" NOx="1.20" PMx="0.07" fuel="1.13" electricity="0.00" noise="55.94" route="routeright" type="1" waiting="0.00" lane="right_1" pos="6.09" speed="0.00" angle="90.00" x="613.95" y="139.77"/>
        <vehicle id="1_2" eclass="HBEFA3/PC_G_EU4" CO2="2624.72" CO="164.78" HC="0.81" NOx="1.20" PMx="0.07" fuel="1.13" electricity="0.00" noise="55.94" route="routeright" type="1" waiting="0.00" lane="right_0" pos="121.21" speed="0.00" angle="90.00" x="726.77" y="136.47"/>
        <vehicle id="1_3" eclass="HBEFA3/PC_G_EU4" CO2="2624.72" CO="164.78" HC="0.81" NOx="1.20" PMx="0.07" fuel="1.13" electricity="0.00" noise="55.94" route="routeright" type="1" waiting="0.00" lane="right_1" pos="127.33" speed="0.00" angle="90.00" x="732.77" y="139.77"/>
        <vehicle id="1_4" eclass="HBEFA3/PC_G_EU4" CO2="2624.72" CO="164.78" HC="0.81" NOx="1.20" PMx="0.07" fuel="1.13" electricity="0.00" noise="55.94" route="routeright" type="1" waiting="0.00" lane="right_0" pos="243.64" speed="0.00" angle="90.00" x="846.76" y="136.47"/>
        <vehicle id="2_0" eclass="HBEFA3/PC_G_EU4" CO2="2624.72" CO="164.78" HC="0.81" NOx="1.20" PMx="0.07" fuel="1.13" electricity="0.00" noise="55.94" route="routeright" type="2" waiting="0.00" lane="right_1" pos="244.30" speed="0.00" angle="90.00" x="847.40" y="139.77"/>
        <vehicle id="2_1" eclass="HBEFA3/PC_G_EU4" CO2="2624.72" CO="164.78" HC="0.81" NOx="1.20" PMx="0.07" fuel="1.13" electricity="0.00" noise="55.94" route="routeright" type="2" waiting="0.00" lane="right_0" pos="360.80" speed="0.00" angle="90.00" x="961.58" y="136.47"/>
        <vehicle id="2_2" eclass="HBEFA3/PC_G_EU4" CO2="2624.72" CO="164.78" HC="0.81" NOx="1.20" PMx="0.07" fuel="1.13" electricity="0.00" noise="55.94" route="routeright" type="2" waiting="0.00" lane="right_1" pos="366.43" speed="0.00" angle="90.00" x="967.10" y="139.77"/>
        <vehicle id="2_3" eclass="HBEFA3/PC_G_EU4" CO2="2624.72" CO="164.78" HC="0.81" NOx="1.20" PMx="0.07" fuel="1.13" electricity="0.00" noise="55.94" route="routecenter" type="2" waiting="0.00" lane="center_0" pos="74.59" speed="0.00" angle="90.00" x="474.47" y="136.47"/>
        <vehicle id="2_4" eclass="HBEFA3/PC_G_EU4" CO2="2624.72" CO="164.78" HC="0.81" NOx="1.20" PMx="0.07" fuel="1.13" electricity="0.00" noise="55.94" route="routecenter" type="2" waiting="0.00" lane="center_1" pos="80.26" speed="0.00" angle="90.00" x="480.17" y="139.77"/>
        <vehicle id="3_0" eclass="HBEFA3/PC_G_EU4" CO2="2624.72" CO="164.78" HC="0.81" NOx="1.20" PMx="0.07" fuel="1.13" electricity="0.00" noise="55.94" route="routeinflow_highway" type="3" waiting="0.00" lane="inflow_highway_0" pos="4.80" speed="0.00" angle="90.00" x="4.80" y="136.47"/>
        <vehicle id="3_1" eclass="HBEFA3/PC_G_EU4" CO2="2624.72" CO="164.78" HC="0.81" NOx="1.20" PMx="0.07" fuel="1.13" electricity="0.00" noise="55.94" route="routeinflow_highway" type="3" waiting="0.00" lane="inflow_highway_1" pos="0.00" speed="0.00" angle="90.00" x="0.00" y="139.77"/>
        <vehicle id="3_2" eclass="HBEFA3/PC_G_EU4" CO2="2624.72" CO="164.78" HC="0.81" NOx="1.20" PMx="0.07" fuel="1.13" electricity="0.00" noise="55.94" route="routediverge" type="3" waiting="0.00" lane="diverge_0" pos="26.97" speed="0.00" angle="135.00" x="624.46" y="114.63"/>
        <vehicle id="3_3" eclass="HBEFA3/PC_G_EU4" CO2="2624.72" CO="164.78" HC="0.81" NOx="1.20" PMx="0.07" fuel="1.13" electricity="0.00" noise="55.94" route="routediverge" type="3" waiting="0.00" lane="diverge_0" pos="139.95" speed="0.00" angle="135.00" x="700.06" y="39.02"/>
        <vehicle id="3_4" eclass="HBEFA3/PC_G_EU4" CO2="2624.72" CO="164.78" HC="0.81" NOx="1.20" PMx="0.07" fuel="1.13" electricity="0.00" noise="55.94" route="routeinflow_merge" type="3" waiting="0.00" lane="inflow_merge_0" pos="56.57" speed="0.00" angle="45.00" x="299.75" y="38.83"/>
        <vehicle id="4_0" eclass="HBEFA3/PC_G_EU4" CO2="2624.72" CO="164.78" HC="0.81" NOx="1.20" PMx="0.07" fuel="1.13" electricity="0.00" noise="55.94" route="routemerge" type="4" waiting="0.00" lane="merge_0" pos="86.56" speed="0.00" angle="45.00" x="385.11" y="124.20"/>
        <vehicle id="4_1" eclass="HBEFA3/PC_G_EU4" CO2="2624.72" CO="164.78" HC="0.81" NOx="1.20" PMx="0.07" fuel="1.13" electricity="0.00" noise="55.94" route="routeleft" type="4" waiting="0.00" lane="left_0" pos="109.42" speed="0.00" angle="90.00" x="206.51" y="136.47"/>
        <vehicle id="4_2" eclass="HBEFA3/PC_G_EU4" CO2="2624.72" CO="164.78" HC="0.81" NOx="1.20" PMx="0.07" fuel="1.13" electricity="0.00" noise="55.94" route="routeleft" type="4" waiting="0.00" lane="left_1" pos="107.47" speed="0.00" angle="90.00" x="204.61" y="139.77"/>
        <vehicle id="4_3" eclass="HBEFA3/PC_G_EU4" CO2="2624.72" CO="164.78" HC="0.81" NOx="1.20" PMx="0.07" fuel="1.13" electricity="0.00" noise="55.94" route="routeleft" type="4" waiting="0.00" lane="left_0" pos="220.87" speed="0.00" angle="90.00" x="315.00" y="136.47"/>
        <vehicle id="4_4" eclass="HBEFA3/PC_G_EU4" CO2="2624.72" CO="164.78" HC="0.81" NOx="1.20" PMx="0.07" fuel="1.13" electricity="0.00" noise="55.94" route="routeleft" type="4" waiting="0.00" lane="left_1" pos="207.48" speed="0.00" angle="90.00" x="301.96" y="139.77"/>
    </timestep>
    <timestep time="0.20">
        <vehicle id="1_0" eclass="HBEFA3/PC_G_EU4" CO2="2624.72" CO="164.78" HC="0.81" NOx="1.20" PMx="0.07" fuel="1.13" electricity="0.00" noise="55.94" route="routeright" type="1" waiting="0.00" lane="right_0" pos="0.00" speed="0.00" angle="90.00" x="607.98" y="136.47"/>
        <vehicle id="1_1" eclass="HBEFA3/PC_G_EU4" CO2="2624.72" CO="164.78" HC="0.81" NOx="1.20" PMx="0.07" fuel="1.13" electricity="0.00" noise="55.94" route="routeright" type="1" waiting="0.00" lane="right_1" pos="6.09" speed="0.00" angle="90.00" x="613.95" y="139.77"/>
        <vehicle id="1_2" eclass="HBEFA3/PC_G_EU4" CO2="2624.72" CO="164.78" HC="0.81" NOx="1.20" PMx="0.07" fuel="1.13" electricity="0.00" noise="55.94" route="routeright" type="1" waiting="0.00" lane="right_0" pos="121.21" speed="0.00" angle="90.00" x="726.77" y="136.47"/>
        <vehicle id="1_3" eclass="HBEFA3/PC_G_EU4" CO2="2624.72" CO="164.78" HC="0.81" NOx="1.20" PMx="0.07" fuel="1.13" electricity="0.00" noise="55.94" route="routeright" type="1" waiting="0.00" lane="right_1" pos="127.33" speed="0.00" angle="90.00" x="732.77" y="139.77"/>
        <vehicle id="1_4" eclass="HBEFA3/PC_G_EU4" CO2="2624.72" CO="164.78" HC="0.81" NOx="1.20" PMx="0.07" fuel="1.13" electricity="0.00" noise="55.94" route="routeright" type="1" waiting="0.00" lane="right_0" pos="243.64" speed="0.00" angle="90.00" x="846.76" y="136.47"/>
        <vehicle id="2_0" eclass="HBEFA3/PC_G_EU4" CO2="2624.72" CO="164.78" HC="0.81" NOx="1.20" PMx="0.07" fuel="1.13" electricity="0.00" noise="55.94" route="routeright" type="2" waiting="0.00" lane="right_1" pos="244.30" speed="0.00" angle="90.00" x="847.40" y="139.77"/>
        <vehicle id="2_1" eclass="HBEFA3/PC_G_EU4" CO2="2624.72" CO="164.78" HC="0.81" NOx="1.20" PMx="0.07" fuel="1.13" electricity="0.00" noise="55.94" route="routeright" type="2" waiting="0.00" lane="right_0" pos="360.80" speed="0.00" angle="90.00" x="961.58" y="136.47"/>
        <vehicle id="2_2" eclass="HBEFA3/PC_G_EU4" CO2="2624.72" CO="164.78" HC="0.81" NOx="1.20" PMx="0.07" fuel="1.13" electricity="0.00" noise="55.94" route="routeright" type="2" waiting="0.00" lane="right_1" pos="366.43" speed="0.00" angle="90.00" x="967.10" y="139.77"/>
        <vehicle id="2_3" eclass="HBEFA3/PC_G_EU4" CO2="2624.72" CO="164.78" HC="0.81" NOx="1.20" PMx="0.07" fuel="1.13" electricity="0.00" noise="55.94" route="routecenter" type="2" waiting="0.00" lane="center_0" pos="74.59" speed="0.00" angle="90.00" x="474.47" y="136.47"/>
        <vehicle id="2_4" eclass="HBEFA3/PC_G_EU4" CO2="2624.72" CO="164.78" HC="0.81" NOx="1.20" PMx="0.07" fuel="1.13" electricity="0.00" noise="55.94" route="routecenter" type="2" waiting="0.00" lane="center_1" pos="80.26" speed="0.00" angle="90.00" x="480.17" y="139.77"/>
        <vehicle id="3_0" eclass="HBEFA3/PC_G_EU4" CO2="2624.72" CO="164.78" HC="0.81" NOx="1.20" PMx="0.07" fuel="1.13" electricity="0.00" noise="55.94" route="routeinflow_highway" type="3" waiting="0.00" lane="inflow_highway_0" pos="4.80" speed="0.00" angle="90.00" x="4.80" y="136.47"/>
        <vehicle id="3_1" eclass="HBEFA3/PC_G_EU4" CO2="2624.72" CO="164.78" HC="0.81" NOx="1.20" PMx="0.07" fuel="1.13" electricity="0.00" noise="55.94" route="routeinflow_highway" type="3" waiting="0.00" lane="inflow_highway_1" pos="0.00" speed="0.00" angle="90.00" x="0.00" y="139.77"/>
        <vehicle id="3_2" eclass="HBEFA3/PC_G_EU4" CO2="2624.72" CO="164.78" HC="0.81" NOx="1.20" PMx="0.07" fuel="1.13" electricity="0.00" noise="55.94" route="routediverge" type="3" waiting="0.00" lane="diverge_0" pos="26.97" speed="0.00" angle="135.00" x="624.46" y="114.63"/>
        <vehicle id="3_3" eclass="HBEFA3/PC_G_EU4" CO2="2624.72" CO="164.78" HC="0.81" NOx="1.20" PMx="0.07" fuel="1.13" electricity="0.00" noise="55.94" route="routediverge" type="3" waiting="0.00" lane="diverge_0" pos="139.95" speed="0.00" angle="135.00" x="700.06" y="39.02"/>
        <vehicle id="3_4" eclass="HBEFA3/PC_G_EU4" CO2="2624.72" CO="164.78" HC="0.81" NOx="1.20" PMx="0.07" fuel="1.13" electricity="0.00" noise="55.94" route="routeinflow_merge" type="3" waiting="0.00" lane="inflow_merge_0" pos="56.57" speed="0.00" angle="45.00" x="299.75" y="38.83"/>
        <vehicle id="4_0" eclass="HBEFA3/PC_G_EU4" CO2="2624.72" CO="164.78" HC="0.81" NOx="1.20" PMx="0.07" fuel="1.13" electricity="0.00" noise="55.94" route="routemerge" type="4" waiting="0.00" lane="merge_0" pos="86.56" speed="0.00" angle="45.00" x="385.11" y="124.20"/>
        <vehicle id="4_1" eclass="HBEFA3/PC_G_EU4" CO2="2624.72" CO="164.78" HC="0.81" NOx="1.20" PMx="0.07" fuel="1.13" electricity="0.00" noise="55.94" route="routeleft" type="4" waiting="0.00" lane="left_0" pos="109.42" speed="0.00" angle="90.00" x="206.51" y="136.47"/>
        <vehicle id="4_2" eclass="HBEFA3/PC_G_EU4" CO2="2624.72" CO="164.78" HC="0.81" NOx="1.20" PMx="0.07" fuel="1.13" electricity="0.00" noise="55.94" route="routeleft" type="4" waiting="0.00" lane="left_1" pos="107.47" speed="0.00" angle="90.00" x="204.61" y="139.77"/>
        <vehicle id="4_3" eclass="HBEFA3/PC_G_EU4" CO2="2624.72" CO="164.78" HC="0.81" NOx="1.20" PMx="0.07" fuel="1.13" electricity="0.00" noise="55.94" route="routeleft" type="4" waiting="0.00" lane="left_0" pos="220.87" speed="0.00" angle="90.00" x="315.00" y="136.47"/>
        <vehicle id="4_4" eclass="HBEFA3/PC_G_EU4" CO2="2624.72" CO="164.78" HC="0.81" NOx="1.20" PMx="0.07" fuel="1.13" electricity="0.00" noise="55.94" route="routeleft" type="4" waiting="0.00" lane="left_1" pos="207.48" speed="0.00" angle="90.00" x="301.96" y="139.77"/>
    </timestep>
    <timestep time="0.40">
        <vehicle id="1_0" eclass="HBEFA3/PC_G_EU4" CO2="2650.57" CO="161.82" HC="0.80" NOx="1.21" PMx="0.07" fuel="1.14" electricity="0.00" noise="60.38" route="routeright" type="1" waiting="0.00" lane="right_0" pos="0.04" speed="0.20" angle="90.00" x="608.02" y="136.47"/>
        <vehicle id="1_1" eclass="HBEFA3/PC_G_EU4" CO2="2636.86" CO="162.25" HC="0.80" NOx="1.21" PMx="0.07" fuel="1.13" electricity="0.00" noise="59.47" route="routeright" type="1" waiting="0.00" lane="right_1" pos="6.13" speed="0.16" angle="90.00" x="613.98" y="139.77"/>
        <vehicle id="1_2" eclass="HBEFA3/PC_G_EU4" CO2="2651.22" CO="161.80" HC="0.80" NOx="1.21" PMx="0.07" fuel="1.14" electricity="0.00" noise="60.41" route="routeright" type="1" waiting="0.00" lane="right_0" pos="121.25" speed="0.20" angle="90.00" x="726.81" y="136.47"/>
        <vehicle id="1_3" eclass="HBEFA3/PC_G_EU4" CO2="2643.98" CO="162.00" HC="0.80" NOx="1.21" PMx="0.07" fuel="1.14" electricity="0.00" noise="59.98" route="routeright" type="1" waiting="0.00" lane="right_1" pos="127.37" speed="0.18" angle="90.00" x="732.81" y="139.77"/>
        <vehicle id="1_4" eclass="HBEFA3/PC_G_EU4" CO2="2651.22" CO="161.80" HC="0.80" NOx="1.21" PMx="0.07" fuel="1.14" electricity="0.00" noise="60.41" route="routeright" type="1" waiting="0.00" lane="right_0" pos="243.68" speed="0.20" angle="90.00" x="846.80" y="136.47"/>
        <vehicle id="2_0" eclass="HBEFA3/PC_G_EU4" CO2="2634.22" CO="162.37" HC="0.80" NOx="1.20" PMx="0.07" fuel="1.13" electricity="0.00" noise="59.25" route="routeright" type="2" waiting="0.00" lane="right_1" pos="244.32" speed="0.15" angle="90.00" x="847.43" y="139.77"/>
        <vehicle id="2_1" eclass="HBEFA3/PC_G_EU4" CO2="2644.72" CO="161.98" HC="0.80" NOx="1.21" PMx="0.07" fuel="1.14" electricity="0.00" noise="60.02" route="routeright" type="2" waiting="0.00" lane="right_0" pos="360.83" speed="0.18" angle="90.00" x="961.61" y="136.47"/>
        <vehicle id="2_2" eclass="HBEFA3/PC_G_EU4" CO2="2630.36" CO="162.57" HC="0.80" NOx="1.20" PMx="0.07" fuel="1.13" electricity="0.00" noise="58.89" route="routeright" type="2" waiting="0.00" lane="right_1" pos="366.45" speed="0.13" angle="90.00" x="967.12" y="139.77"/>
        <vehicle id="2_3" eclass="HBEFA3/PC_G_EU4" CO2="2646.88" CO="161.92" HC="0.80" NOx="1.21" PMx="0.07" fuel="1.14" electricity="0.00" noise="60.16" route="routecenter" type="2" waiting="0.00" lane="center_0" pos="74.63" speed="0.19" angle="90.00" x="474.51" y="136.47"/>
        <vehicle id="2_4" eclass="HBEFA3/PC_G_EU4" CO2="2642.42" CO="162.05" HC="0.80" NOx="1.21" PMx="0.07" fuel="1.14" electricity="0.00" noise="59.87" route="routecenter" type="2" waiting="0.00" lane="center_1" pos="80.29" speed="0.18" angle="90.00" x="480.20" y="139.77"/>
        <vehicle id="3_0" eclass="HBEFA3/PC_G_EU4" CO2="2651.22" CO="161.80" HC="0.80" NOx="1.21" PMx="0.07" fuel="1.14" electricity="0.00" noise="60.41" route="routeinflow_highway" type="3" waiting="0.00" lane="inflow_highway_0" pos="4.84" speed="0.20" angle="90.00" x="4.84" y="136.47"/>
        <vehicle id="3_1" eclass="HBEFA3/PC_G_EU4" CO2="2651.22" CO="161.80" HC="0.80" NOx="1.21" PMx="0.07" fuel="1.14" electricity="0.00" noise="60.41" route="routeinflow_highway" type="3" waiting="0.00" lane="inflow_highway_1" pos="0.04" speed="0.20" angle="90.00" x="0.04" y="139.77"/>
        <vehicle id="3_2" eclass="HBEFA3/PC_G_EU4" CO2="2636.32" CO="162.27" HC="0.80" NOx="1.21" PMx="0.07" fuel="1.13" electricity="0.00" noise="59.42" route="routediverge" type="3" waiting="0.00" lane="diverge_0" pos="27.00" speed="0.16" angle="135.00" x="624.48" y="114.61"/>
        <vehicle id="3_3" eclass="HBEFA3/PC_G_EU4" CO2="2651.22" CO="161.80" HC="0.80" NOx="1.21" PMx="0.07" fuel="1.14" electricity="0.00" noise="60.41" route="routediverge" type="3" waiting="0.00" lane="diverge_0" pos="139.99" speed="0.20" angle="135.00" x="700.09" y="38.99"/>
        <vehicle id="3_4" eclass="HBEFA3/PC_G_EU4" CO2="2625.40" CO="162.96" HC="0.80" NOx="1.20" PMx="0.07" fuel="1.13" electricity="0.00" noise="58.27" route="routeinflow_merge" type="3" waiting="0.00" lane="inflow_merge_0" pos="56.59" speed="0.10" angle="45.00" x="299.76" y="38.84"/>
        <vehicle id="4_0" eclass="HBEFA3/PC_G_EU4" CO2="2651.22" CO="161.80" HC="0.80" NOx="1.21" PMx="0.07" fuel="1.14" electricity="0.00" noise="60.41" route="routemerge" type="4" waiting="0.00" lane="merge_0" pos="86.60" speed="0.20" angle="45.00" x="385.13" y="124.22"/>
        <vehicle id="4_1" eclass="HBEFA3/PC_G_EU4" CO2="2651.22" CO="161.80" HC="0.80" NOx="1.21" PMx="0.07" fuel="1.14" electricity="0.00" noise="60.41" route="routeleft" type="4" waiting="0.00" lane="left_0" pos="109.46" speed="0.20" angle="90.00" x="206.55" y="136.47"/>
        <vehicle id="4_2" eclass="HBEFA3/PC_G_EU4" CO2="2651.22" CO="161.80" HC="0.80" NOx="1.21" PMx="0.07" fuel="1.14" electricity="0.00" noise="60.41" route="routeleft" type="4" waiting="0.00" lane="left_1" pos="107.51" speed="0.20" angle="90.00" x="204.65" y="139.77"/>
        <vehicle id="4_3" eclass="HBEFA3/PC_G_EU4" CO2="2651.22" CO="161.80" HC="0.80" NOx="1.21" PMx="0.07" fuel="1.14" electricity="0.00" noise="60.41" route="routeleft" type="4" waiting="0.00" lane="left_0" pos="220.91" speed="0.20" angle="90.00" x="315.04" y="136.47"/>
        <vehicle id="4_4" eclass="HBEFA3/PC_G_EU4" CO2="2647.81" CO="161.89" HC="0.80" NOx="1.21" PMx="0.07" fuel="1.14" electricity="0.00" noise="60.22" route="routeleft" type="4" waiting="0.00" lane="left_1" pos="207.51" speed="0.19" angle="90.00" x="301.99" y="139.77"/>
    </timestep>
    <timestep time="0.60">
        <vehicle id="1_0" eclass="HBEFA3/PC_G_EU4" CO2="2662.25" CO="159.02" HC="0.79" NOx="1.21" PMx="0.06" fuel="1.14" electricity="0.00" noise="59.92" route="routeright" type="1" waiting="0.00" lane="right_0" pos="0.11" speed="0.37" angle="90.00" x="608.09" y="136.47"/>
        <vehicle id="1_1" eclass="HBEFA3/PC_G_EU4" CO2="2672.55" CO="159.49" HC="0.79" NOx="1.22" PMx="0.07" fuel="1.15" electricity="0.00" noise="60.47" route="routeright" type="1" waiting="0.00" lane="right_1" pos="6.20" speed="0.36" angle="90.00" x="614.05" y="139.77"/>
        <vehicle id="1_2" eclass="HBEFA3/PC_G_EU4" CO2="2665.46" CO="158.97" HC="0.79" NOx="1.21" PMx="0.06" fuel="1.15" electricity="0.00" noise="60.03" route="routeright" type="1" waiting="0.00" lane="right_0" pos="121.33" speed="0.38" angle="90.00" x="726.89" y="136.47"/>
        <vehicle id="1_3" eclass="HBEFA3/PC_G_EU4" CO2="2674.75" CO="159.17" HC="0.79" NOx="1.22" PMx="0.07" fuel="1.15" electricity="0.00" noise="60.45" route="routeright" type="1" waiting="0.00" lane="right_1" pos="127.45" speed="0.38" angle="90.00" x="732.88" y="139.77"/>
        <vehicle id="1_4" eclass="HBEFA3/PC_G_EU4" CO2="2659.66" CO="159.02" HC="0.79" NOx="1.21" PMx="0.06" fuel="1.14" electricity="0.00" noise="59.81" route="routeright" type="1" waiting="0.00" lane="right_0" pos="243.76" speed="0.37" angle="90.00" x="846.87" y="136.47"/>
        <vehicle id="2_0" eclass="HBEFA3/PC_G_EU4" CO2="2652.76" CO="159.84" HC="0.79" NOx="1.21" PMx="0.06" fuel="1.14" electricity="0.00" noise="59.71" route="routeright" type="2" waiting="0.00" lane="right_1" pos="244.39" speed="0.31" angle="90.00" x="847.49" y="139.77"/>
        <vehicle id="2_1" eclass="HBEFA3/PC_G_EU4" CO2="2663.92" CO="159.23" HC="0.79" NOx="1.21" PMx="0.06" fuel="1.15" electricity="0.00" noise="60.04" route="routeright" type="2" waiting="0.00" lane="right_0" pos="360.90" speed="0.36" angle="90.00" x="961.68" y="136.47"/>
        <vehicle id="2_2" eclass="HBEFA3/PC_G_EU4" CO2="2658.31" CO="160.00" HC="0.79" NOx="1.21" PMx="0.07" fuel="1.14" electricity="0.00" noise="60.02" route="routeright" type="2" waiting="0.00" lane="right_1" pos="366.52" speed="0.31" angle="90.00" x="967.18" y="139.77"/>
        <vehicle id="2_3" eclass="HBEFA3/PC_G_EU4" CO2="2676.78" CO="159.04" HC="0.79" NOx="1.22" PMx="0.07" fuel="1.15" electricity="0.00" noise="60.49" route="routecenter" type="2" waiting="0.00" lane="center_0" pos="74.70" speed="0.39" angle="90.00" x="474.59" y="136.47"/>
        <vehicle id="2_4" eclass="HBEFA3/PC_G_EU4" CO2="2672.69" CO="159.25" HC="0.79" NOx="1.22" PMx="0.07" fuel="1.15" electricity="0.00" noise="60.40" route="routecenter" type="2" waiting="0.00" lane="center_1" pos="80.36" speed="0.37" angle="90.00" x="480.28" y="139.77"/>
        <vehicle id="3_0" eclass="HBEFA3/PC_G_EU4" CO2="2674.37" CO="158.90" HC="0.79" NOx="1.22" PMx="0.07" fuel="1.15" electricity="0.00" noise="60.35" route="routeinflow_highway" type="3" waiting="0.00" lane="inflow_highway_0" pos="4.92" speed="0.39" angle="90.00" x="4.92" y="136.47"/>
        <vehicle id="3_1" eclass="HBEFA3/PC_G_EU4" CO2="2677.31" CO="158.88" HC="0.79" NOx="1.22" PMx="0.07" fuel="1.15" electricity="0.00" noise="60.45" route="routeinflow_highway" type="3" waiting="0.00" lane="inflow_highway_1" pos="0.12" speed="0.40" angle="90.00" x="0.12" y="139.77"/>
        <vehicle id="3_2" eclass="HBEFA3/PC_G_EU4" CO2="2635.42" CO="160.04" HC="0.79" NOx="1.20" PMx="0.06" fuel="1.13" electricity="0.00" noise="58.84" route="routediverge" type="3" waiting="0.00" lane="diverge_0" pos="27.06" speed="0.28" angle="135.00" x="624.52" y="114.57"/>
        <vehicle id="3_3" eclass="HBEFA3/PC_G_EU4" CO2="2669.01" CO="158.94" HC="0.79" NOx="1.21" PMx="0.06" fuel="1.15" electricity="0.00" noise="60.16" route="routediverge" type="3" waiting="0.00" lane="diverge_0" pos="140.06" speed="0.39" angle="135.00" x="700.14" y="38.94"/>
        <vehicle id="3_4" eclass="HBEFA3/PC_G_EU4" CO2="2665.24" CO="160.28" HC="0.79" NOx="1.22" PMx="0.07" fuel="1.15" electricity="0.00" noise="60.45" route="routeinflow_merge" type="3" waiting="0.00" lane="inflow_merge_0" pos="56.65" speed="0.30" angle="45.00" x="299.81" y="38.89"/>
        <vehicle id="4_0" eclass="HBEFA3/PC_G_EU4" CO2="2678.31" CO="158.88" HC="0.79" NOx="1.22" PMx="0.07" fuel="1.15" electricity="0.00" noise="60.49" route="routemerge" type="4" waiting="0.00" lane="merge_0" pos="86.68" speed="0.40" angle="45.00" x="385.18" y="124.27"/>
        <vehicle id="4_1" eclass="HBEFA3/PC_G_EU4" CO2="2678.34" CO="158.88" HC="0.79" NOx="1.22" PMx="0.07" fuel="1.15" electricity="0.00" noise="60.49" route="routeleft" type="4" waiting="0.00" lane="left_0" pos="109.54" speed="0.40" angle="90.00" x="206.63" y="136.47"/>
        <vehicle id="4_2" eclass="HBEFA3/PC_G_EU4" CO2="2678.34" CO="158.88" HC="0.79" NOx="1.22" PMx="0.07" fuel="1.15" electricity="0.00" noise="60.49" route="routeleft" type="4" waiting="0.00" lane="left_1" pos="107.59" speed="0.40" angle="90.00" x="204.73" y="139.77"/>
        <vehicle id="4_3" eclass="HBEFA3/PC_G_EU4" CO2="2678.34" CO="158.88" HC="0.79" NOx="1.22" PMx="0.07" fuel="1.15" electricity="0.00" noise="60.49" route="routeleft" type="4" waiting="0.00" lane="left_0" pos="220.99" speed="0.40" angle="90.00" x="315.11" y="136.47"/>
        <vehicle id="4_4" eclass="HBEFA3/PC_G_EU4" CO2="2650.78" CO="159.24" HC="0.79" NOx="1.21" PMx="0.06" fuel="1.14" electricity="0.00" noise="59.48" route="routeleft" type="4" waiting="0.00" lane="left_1" pos="207.58" speed="0.35" angle="90.00" x="302.06" y="139.77"/>
    </timestep>
    <timestep time="0.80">
        <vehicle id="1_0" eclass="HBEFA3/PC_G_EU4" CO2="2702.29" CO="156.39" HC="0.78" NOx="1.23" PMx="0.06" fuel="1.16" electricity="0.00" noise="60.56" route="routeright" type="1" waiting="0.00" lane="right_0" pos="0.23" speed="0.57" angle="90.00" x="608.20" y="136.47"/>
        <vehicle id="1_1" eclass="HBEFA3/PC_G_EU4" CO2="2700.17" CO="156.60" HC="0.78" NOx="1.22" PMx="0.06" fuel="1.16" electricity="0.00" noise="60.55" route="routeright" type="1" waiting="0.00" lane="right_1" pos="6.31" speed="0.56" angle="90.00" x="614.16" y="139.77"/>
        <vehicle id="1_2" eclass="HBEFA3/PC_G_EU4" CO2="2703.24" CO="156.29" HC="0.77" NOx="1.23" PMx="0.06" fuel="1.16" electricity="0.00" noise="60.56" route="routeright" type="1" waiting="0.00" lane="right_0" pos="121.44" speed="0.58" angle="90.00" x="727.00" y="136.47"/>
        <vehicle id="1_3" eclass="HBEFA3/PC_G_EU4" CO2="2689.24" CO="156.29" HC="0.77" NOx="1.22" PMx="0.06" fuel="1.16" electricity="0.00" noise="60.20" route="routeright" type="1" waiting="0.00" lane="right_1" pos="127.56" speed="0.56" angle="90.00" x="732.99" y="139.77"/>
        <vehicle id="1_4" eclass="HBEFA3/PC_G_EU4" CO2="2685.42" CO="156.42" HC="0.78" NOx="1.22" PMx="0.06" fuel="1.15" electricity="0.00" noise="60.12" route="routeright" type="1" waiting="0.00" lane="right_0" pos="243.87" speed="0.55" angle="90.00" x="846.98" y="136.47"/>
        <vehicle id="2_0" eclass="HBEFA3/PC_G_EU4" CO2="2694.10" CO="157.23" HC="0.78" NOx="1.22" PMx="0.06" fuel="1.16" electricity="0.00" noise="60.53" route="routeright" type="2" waiting="0.00" lane="right_1" pos="244.49" speed="0.51" angle="90.00" x="847.59" y="139.77"/>
        <vehicle id="2_1" eclass="HBEFA3/PC_G_EU4" CO2="2700.89" CO="156.53" HC="0.78" NOx="1.22" PMx="0.06" fuel="1.16" electricity="0.00" noise="60.55" route="routeright" type="2" waiting="0.00" lane="right_0" pos="361.02" speed="0.56" angle="90.00" x="961.79" y="136.47"/>
        <vehicle id="2_2" eclass="HBEFA3/PC_G_EU4" CO2="2693.80" CO="157.26" HC="0.78" NOx="1.22" PMx="0.06" fuel="1.16" electricity="0.00" noise="60.53" route="routeright" type="2" waiting="0.00" lane="right_1" pos="366.62" speed="0.51" angle="90.00" x="967.28" y="139.77"/>
        <vehicle id="2_3" eclass="HBEFA3/PC_G_EU4" CO2="2700.42" CO="156.16" HC="0.77" NOx="1.22" PMx="0.06" fuel="1.16" electricity="0.00" noise="60.46" route="routecenter" type="2" waiting="0.00" lane="center_0" pos="74.82" speed="0.58" angle="90.00" x="474.71" y="136.47"/>
        <vehicle id="2_4" eclass="HBEFA3/PC_G_EU4" CO2="2702.17" CO="156.40" HC="0.78" NOx="1.23" PMx="0.06" fuel="1.16" electricity="0.00" noise="60.56" route="routecenter" type="2" waiting="0.00" lane="center_1" pos="80.48" speed="0.57" angle="90.00" x="480.39" y="139.77"/>
        <vehicle id="3_0" eclass="HBEFA3/PC_G_EU4" CO2="2705.24" CO="156.09" HC="0.77" NOx="1.23" PMx="0.06" fuel="1.16" electricity="0.00" noise="60.56" route="routeinflow_highway" type="3" waiting="0.00" lane="inflow_highway_0" pos="5.04" speed="0.59" angle="90.00" x="5.04" y="136.47"/>
        <vehicle id="3_1" eclass="HBEFA3/PC_G_EU4" CO2="2702.79" CO="156.01" HC="0.77" NOx="1.22" PMx="0.06" fuel="1.16" electricity="0.00" noise="60.49" route="routeinflow_highway" type="3" waiting="0.00" lane="inflow_highway_1" pos="0.24" speed="0.60" angle="90.00" x="0.24" y="139.77"/>
        <vehicle id="3_2" eclass="HBEFA3/PC_G_EU4" CO2="2689.74" CO="157.68" HC="0.78" NOx="1.22" PMx="0.06" fuel="1.16" electricity="0.00" noise="60.52" route="routediverge" type="3" waiting="0.00" lane="diverge_0" pos="27.15" speed="0.48" angle="135.00" x="624.58" y="114.51"/>
        <vehicle id="3_3" eclass="HBEFA3/PC_G_EU4" CO2="2653.86" CO="156.22" HC="0.77" NOx="1.20" PMx="0.06" fuel="1.14" electricity="0.00" noise="59.20" route="routediverge" type="3" waiting="0.00" lane="diverge_0" pos="140.17" speed="0.52" angle="135.00" x="700.21" y="38.87"/>
        <vehicle id="3_4" eclass="HBEFA3/PC_G_EU4" CO2="2678.47" CO="157.40" HC="0.78" NOx="1.22" PMx="0.06" fuel="1.15" electricity="0.00" noise="60.12" route="routeinflow_merge" type="3" waiting="0.00" lane="inflow_merge_0" pos="56.75" speed="0.49" angle="45.00" x="299.88" y="38.96"/>
        <vehicle id="4_0" eclass="HBEFA3/PC_G_EU4" CO2="2675.76" CO="155.97" HC="0.77" NOx="1.21" PMx="0.06" fuel="1.15" electricity="0.00" noise="59.79" route="routemerge" type="4" waiting="0.00" lane="merge_0" pos="86.80" speed="0.57" angle="45.00" x="385.25" y="124.34"/>
        <vehicle id="4_1" eclass="HBEFA3/PC_G_EU4" CO2="2691.95" CO="155.98" HC="0.77" NOx="1.22" PMx="0.06" fuel="1.16" electricity="0.00" noise="60.21" route="routeleft" type="4" waiting="0.00" lane="left_0" pos="109.66" speed="0.58" angle="90.00" x="206.74" y="136.47"/>
        <vehicle id="4_2" eclass="HBEFA3/PC_G_EU4" CO2="2682.39" CO="155.97" HC="0.77" NOx="1.22" PMx="0.06" fuel="1.15" electricity="0.00" noise="59.97" route="routeleft" type="4" waiting="0.00" lane="left_1" pos="107.70" speed="0.57" angle="90.00" x="204.84" y="139.77"/>
        <vehicle id="4_3" eclass="HBEFA3/PC_G_EU4" CO2="2706.10" CO="156.00" HC="0.77" NOx="1.23" PMx="0.06" fuel="1.16" electricity="0.00" noise="60.57" route="routeleft" type="4" waiting="0.00" lane="left_0" pos="221.11" speed="0.60" angle="90.00" x="315.23" y="136.47"/>
        <vehicle id="4_4" eclass="HBEFA3/PC_G_EU4" CO2="2698.58" CO="156.77" HC="0.78" NOx="1.22" PMx="0.06" fuel="1.16" electricity="0.00" noise="60.55" route="routeleft" type="4" waiting="0.00" lane="left_1" pos="207.69" speed="0.55" angle="90.00" x="302.17" y="139.77"/>
    </timestep>
    <timestep time="1.00">
        <vehicle id="1_0" eclass="HBEFA3/PC_G_EU4" CO2="2672.84" CO="153.27" HC="0.76" NOx="1.21" PMx="0.06" fuel="1.15" electricity="0.00" noise="59.44" route="routeright" type="1" waiting="0.00" lane="right_0" pos="0.37" speed="0.72" angle="90.00" x="608.35" y="136.47"/>