<?xml version="1.0" encoding="UTF-8"?>

<!-- generated on Mon Nov 19 20:53:50 2018 by SUMO gui Version b'v0_31_0-812-g1d4338ab80'
<?xml version="1.0" encoding="UTF-8"?>

<configuration xmlns:xsi="http://www.w3.org/2001/XMLSchema-instance" xsi:noNamespaceSchemaLocation="http://sumo.dlr.de/xsd/sumoConfiguration.xsd">

    <input>
        <net-file value="/Users/barryfan/flow/flow/scenarios/debug/cfg/merge-baseline_20181119-2053491542689629.054366.net.xml"/>
        <route-files value="/Users/barryfan/flow/flow/scenarios/debug/cfg/merge-baseline_20181119-2053491542689629.054366.rou.xml"/>
        <additional-files value="/Users/barryfan/flow/flow/scenarios/debug/cfg/merge-baseline_20181119-2053491542689629.054366.add.xml"/>
    </input>

    <output>
        <emission-output value="./data/merge-baseline_20181119-2053491542689629.054366-emission.xml"/>
    </output>

    <time>
        <begin value="0"/>
        <step-length value="0.2"/>
    </time>

    <processing>
        <lateral-resolution value="0.2"/>
        <time-to-teleport value="-1"/>
    </processing>

    <report>
        <no-step-log value="true"/>
    </report>

    <traci_server>
        <remote-port value="63367"/>
    </traci_server>

    <gui_only>
        <gui-settings-file value="/Users/barryfan/flow/flow/scenarios/debug/cfg/merge-baseline_20181119-2053491542689629.054366.gui.cfg"/>
        <tracker-interval value="0.2"/>
    </gui_only>

</configuration>
-->

<emission-export xmlns:xsi="http://www.w3.org/2001/XMLSchema-instance" xsi:noNamespaceSchemaLocation="http://sumo.dlr.de/xsd/emission_file.xsd">
    <timestep time="0.00">
        <vehicle id="1_0" eclass="HBEFA3/PC_G_EU4" CO2="2624.72" CO="164.78" HC="0.81" NOx="1.20" PMx="0.07" fuel="1.13" electricity="0.00" noise="55.94" route="routemerge" type="1" waiting="0.00" lane="merge_0" pos="8.01" speed="0.00" angle="45.00" x="335.52" y="74.60"/>
        <vehicle id="1_1" eclass="HBEFA3/PC_G_EU4" CO2="2624.72" CO="164.78" HC="0.81" NOx="1.20" PMx="0.07" fuel="1.13" electricity="0.00" noise="55.94" route="routeinflow_highway" type="1" waiting="0.00" lane="inflow_highway_0" pos="18.59" speed="0.00" angle="90.00" x="18.59" y="136.47"/>
        <vehicle id="1_2" eclass="HBEFA3/PC_G_EU4" CO2="2624.72" CO="164.78" HC="0.81" NOx="1.20" PMx="0.07" fuel="1.13" electricity="0.00" noise="55.94" route="routeinflow_highway" type="1" waiting="0.00" lane="inflow_highway_1" pos="16.50" speed="0.00" angle="90.00" x="16.50" y="139.77"/>
        <vehicle id="1_3" eclass="HBEFA3/PC_G_EU4" CO2="2624.72" CO="164.78" HC="0.81" NOx="1.20" PMx="0.07" fuel="1.13" electricity="0.00" noise="55.94" route="routecenter" type="1" waiting="0.00" lane="center_0" pos="44.20" speed="0.00" angle="90.00" x="443.95" y="136.47"/>
        <vehicle id="1_4" eclass="HBEFA3/PC_G_EU4" CO2="2624.72" CO="164.78" HC="0.81" NOx="1.20" PMx="0.07" fuel="1.13" electricity="0.00" noise="55.94" route="routecenter" type="1" waiting="0.00" lane="center_1" pos="48.38" speed="0.00" angle="90.00" x="448.15" y="139.77"/>
        <vehicle id="2_0" eclass="HBEFA3/PC_G_EU4" CO2="2624.72" CO="164.78" HC="0.81" NOx="1.20" PMx="0.07" fuel="1.13" electricity="0.00" noise="55.94" route="routecenter" type="2" waiting="0.00" lane="center_0" pos="164.86" speed="0.00" angle="90.00" x="565.16" y="136.47"/>
        <vehicle id="2_1" eclass="HBEFA3/PC_G_EU4" CO2="2624.72" CO="164.78" HC="0.81" NOx="1.20" PMx="0.07" fuel="1.13" electricity="0.00" noise="55.94" route="routecenter" type="2" waiting="0.00" lane="center_1" pos="157.08" speed="0.00" angle="90.00" x="557.34" y="139.77"/>
        <vehicle id="2_2" eclass="HBEFA3/PC_G_EU4" CO2="2624.72" CO="164.78" HC="0.81" NOx="1.20" PMx="0.07" fuel="1.13" electricity="0.00" noise="55.94" route="routeinflow_merge" type="2" waiting="0.00" lane="inflow_merge_0" pos="84.22" speed="0.00" angle="45.00" x="319.30" y="58.38"/>
        <vehicle id="2_3" eclass="HBEFA3/PC_G_EU4" CO2="2624.72" CO="164.78" HC="0.81" NOx="1.20" PMx="0.07" fuel="1.13" electricity="0.00" noise="55.94" route="routeleft" type="2" waiting="0.00" lane="left_0" pos="107.45" speed="0.00" angle="90.00" x="204.59" y="136.47"/>
        <vehicle id="2_4" eclass="HBEFA3/PC_G_EU4" CO2="2624.72" CO="164.78" HC="0.81" NOx="1.20" PMx="0.07" fuel="1.13" electricity="0.00" noise="55.94" route="routeleft" type="2" waiting="0.00" lane="left_1" pos="85.48" speed="0.00" angle="90.00" x="183.20" y="139.77"/>
        <vehicle id="3_0" eclass="HBEFA3/PC_G_EU4" CO2="2624.72" CO="164.78" HC="0.81" NOx="1.20" PMx="0.07" fuel="1.13" electricity="0.00" noise="55.94" route="routeleft" type="3" waiting="0.00" lane="left_0" pos="219.86" speed="0.00" angle="90.00" x="314.01" y="136.47"/>
        <vehicle id="3_1" eclass="HBEFA3/PC_G_EU4" CO2="2624.72" CO="164.78" HC="0.81" NOx="1.20" PMx="0.07" fuel="1.13" electricity="0.00" noise="55.94" route="routeleft" type="3" waiting="0.00" lane="left_1" pos="224.30" speed="0.00" angle="90.00" x="318.33" y="139.77"/>
        <vehicle id="3_2" eclass="HBEFA3/PC_G_EU4" CO2="2624.72" CO="164.78" HC="0.81" NOx="1.20" PMx="0.07" fuel="1.13" electricity="0.00" noise="55.94" route="routeright" type="3" waiting="0.00" lane="right_0" pos="49.48" speed="0.00" angle="90.00" x="656.47" y="136.47"/>
        <vehicle id="3_3" eclass="HBEFA3/PC_G_EU4" CO2="2624.72" CO="164.78" HC="0.81" NOx="1.20" PMx="0.07" fuel="1.13" electricity="0.00" noise="55.94" route="routeright" type="3" waiting="0.00" lane="right_1" pos="50.11" speed="0.00" angle="90.00" x="657.09" y="139.77"/>
        <vehicle id="3_4" eclass="HBEFA3/PC_G_EU4" CO2="2624.72" CO="164.78" HC="0.81" NOx="1.20" PMx="0.07" fuel="1.13" electricity="0.00" noise="55.94" route="routeright" type="3" waiting="0.00" lane="right_0" pos="159.33" speed="0.00" angle="90.00" x="764.13" y="136.47"/>
        <vehicle id="4_0" eclass="HBEFA3/PC_G_EU4" CO2="2624.72" CO="164.78" HC="0.81" NOx="1.20" PMx="0.07" fuel="1.13" electricity="0.00" noise="55.94" route="routeright" type="4" waiting="0.00" lane="right_1" pos="160.72" speed="0.00" angle="90.00" x="765.50" y="139.77"/>
        <vehicle id="4_1" eclass="HBEFA3/PC_G_EU4" CO2="2624.72" CO="164.78" HC="0.81" NOx="1.20" PMx="0.07" fuel="1.13" electricity="0.00" noise="55.94" route="routeright" type="4" waiting="0.00" lane="right_0" pos="289.44" speed="0.00" angle="90.00" x="891.64" y="136.47"/>
        <vehicle id="4_2" eclass="HBEFA3/PC_G_EU4" CO2="2624.72" CO="164.78" HC="0.81" NOx="1.20" PMx="0.07" fuel="1.13" electricity="0.00" noise="55.94" route="routeright" type="4" waiting="0.00" lane="right_1" pos="281.54" speed="0.00" angle="90.00" x="883.90" y="139.77"/>
        <vehicle id="4_3" eclass="HBEFA3/PC_G_EU4" CO2="2624.72" CO="164.78" HC="0.81" NOx="1.20" PMx="0.07" fuel="1.13" electricity="0.00" noise="55.94" route="routediverge" type="4" waiting="0.00" lane="diverge_0" pos="12.75" speed="0.00" angle="135.00" x="614.94" y="124.15"/>
        <vehicle id="4_4" eclass="HBEFA3/PC_G_EU4" CO2="2624.72" CO="164.78" HC="0.81" NOx="1.20" PMx="0.07" fuel="1.13" electricity="0.00" noise="55.94" route="routediverge" type="4" waiting="0.00" lane="diverge_0" pos="124.53" speed="0.00" angle="135.00" x="689.75" y="49.34"/>
    </timestep>
    <timestep time="0.20">
        <vehicle id="1_0" eclass="HBEFA3/PC_G_EU4" CO2="2624.72" CO="164.78" HC="0.81" NOx="1.20" PMx="0.07" fuel="1.13" electricity="0.00" noise="55.94" route="routemerge" type="1" waiting="0.00" lane="merge_0" pos="8.01" speed="0.00" angle="45.00" x="335.52" y="74.60"/>
        <vehicle id="1_1" eclass="HBEFA3/PC_G_EU4" CO2="2624.72" CO="164.78" HC="0.81" NOx="1.20" PMx="0.07" fuel="1.13" electricity="0.00" noise="55.94" route="routeinflow_highway" type="1" waiting="0.00" lane="inflow_highway_0" pos="18.59" speed="0.00" angle="90.00" x="18.59" y="136.47"/>
        <vehicle id="1_2" eclass="HBEFA3/PC_G_EU4" CO2="2624.72" CO="164.78" HC="0.81" NOx="1.20" PMx="0.07" fuel="1.13" electricity="0.00" noise="55.94" route="routeinflow_highway" type="1" waiting="0.00" lane="inflow_highway_1" pos="16.50" speed="0.00" angle="90.00" x="16.50" y="139.77"/>
        <vehicle id="1_3" eclass="HBEFA3/PC_G_EU4" CO2="2624.72" CO="164.78" HC="0.81" NOx="1.20" PMx="0.07" fuel="1.13" electricity="0.00" noise="55.94" route="routecenter" type="1" waiting="0.00" lane="center_0" pos="44.20" speed="0.00" angle="90.00" x="443.95" y="136.47"/>
        <vehicle id="1_4" eclass="HBEFA3/PC_G_EU4" CO2="2624.72" CO="164.78" HC="0.81" NOx="1.20" PMx="0.07" fuel="1.13" electricity="0.00" noise="55.94" route="routecenter" type="1" waiting="0.00" lane="center_1" pos="48.38" speed="0.00" angle="90.00" x="448.15" y="139.77"/>
        <vehicle id="2_0" eclass="HBEFA3/PC_G_EU4" CO2="2624.72" CO="164.78" HC="0.81" NOx="1.20" PMx="0.07" fuel="1.13" electricity="0.00" noise="55.94" route="routecenter" type="2" waiting="0.00" lane="center_0" pos="164.86" speed="0.00" angle="90.00" x="565.16" y="136.47"/>
        <vehicle id="2_1" eclass="HBEFA3/PC_G_EU4" CO2="2624.72" CO="164.78" HC="0.81" NOx="1.20" PMx="0.07" fuel="1.13" electricity="0.00" noise="55.94" route="routecenter" type="2" waiting="0.00" lane="center_1" pos="157.08" speed="0.00" angle="90.00" x="557.34" y="139.77"/>
        <vehicle id="2_2" eclass="HBEFA3/PC_G_EU4" CO2="2624.72" CO="164.78" HC="0.81" NOx="1.20" PMx="0.07" fuel="1.13" electricity="0.00" noise="55.94" route="routeinflow_merge" type="2" waiting="0.00" lane="inflow_merge_0" pos="84.22" speed="0.00" angle="45.00" x="319.30" y="58.38"/>
        <vehicle id="2_3" eclass="HBEFA3/PC_G_EU4" CO2="2624.72" CO="164.78" HC="0.81" NOx="1.20" PMx="0.07" fuel="1.13" electricity="0.00" noise="55.94" route="routeleft" type="2" waiting="0.00" lane="left_0" pos="107.45" speed="0.00" angle="90.00" x="204.59" y="136.47"/>
        <vehicle id="2_4" eclass="HBEFA3/PC_G_EU4" CO2="2624.72" CO="164.78" HC="0.81" NOx="1.20" PMx="0.07" fuel="1.13" electricity="0.00" noise="55.94" route="routeleft" type="2" waiting="0.00" lane="left_1" pos="85.48" speed="0.00" angle="90.00" x="183.20" y="139.77"/>
        <vehicle id="3_0" eclass="HBEFA3/PC_G_EU4" CO2="2624.72" CO="164.78" HC="0.81" NOx="1.20" PMx="0.07" fuel="1.13" electricity="0.00" noise="55.94" route="routeleft" type="3" waiting="0.00" lane="left_0" pos="219.86" speed="0.00" angle="90.00" x="314.01" y="136.47"/>
        <vehicle id="3_1" eclass="HBEFA3/PC_G_EU4" CO2="2624.72" CO="164.78" HC="0.81" NOx="1.20" PMx="0.07" fuel="1.13" electricity="0.00" noise="55.94" route="routeleft" type="3" waiting="0.00" lane="left_1" pos="224.30" speed="0.00" angle="90.00" x="318.33" y="139.77"/>
        <vehicle id="3_2" eclass="HBEFA3/PC_G_EU4" CO2="2624.72" CO="164.78" HC="0.81" NOx="1.20" PMx="0.07" fuel="1.13" electricity="0.00" noise="55.94" route="routeright" type="3" waiting="0.00" lane="right_0" pos="49.48" speed="0.00" angle="90.00" x="656.47" y="136.47"/>
        <vehicle id="3_3" eclass="HBEFA3/PC_G_EU4" CO2="2624.72" CO="164.78" HC="0.81" NOx="1.20" PMx="0.07" fuel="1.13" electricity="0.00" noise="55.94" route="routeright" type="3" waiting="0.00" lane="right_1" pos="50.11" speed="0.00" angle="90.00" x="657.09" y="139.77"/>
        <vehicle id="3_4" eclass="HBEFA3/PC_G_EU4" CO2="2624.72" CO="164.78" HC="0.81" NOx="1.20" PMx="0.07" fuel="1.13" electricity="0.00" noise="55.94" route="routeright" type="3" waiting="0.00" lane="right_0" pos="159.33" speed="0.00" angle="90.00" x="764.13" y="136.47"/>
        <vehicle id="4_0" eclass="HBEFA3/PC_G_EU4" CO2="2624.72" CO="164.78" HC="0.81" NOx="1.20" PMx="0.07" fuel="1.13" electricity="0.00" noise="55.94" route="routeright" type="4" waiting="0.00" lane="right_1" pos="160.72" speed="0.00" angle="90.00" x="765.50" y="139.77"/>
        <vehicle id="4_1" eclass="HBEFA3/PC_G_EU4" CO2="2624.72" CO="164.78" HC="0.81" NOx="1.20" PMx="0.07" fuel="1.13" electricity="0.00" noise="55.94" route="routeright" type="4" waiting="0.00" lane="right_0" pos="289.44" speed="0.00" angle="90.00" x="891.64" y="136.47"/>
        <vehicle id="4_2" eclass="HBEFA3/PC_G_EU4" CO2="2624.72" CO="164.78" HC="0.81" NOx="1.20" PMx="0.07" fuel="1.13" electricity="0.00" noise="55.94" route="routeright" type="4" waiting="0.00" lane="right_1" pos="281.54" speed="0.00" angle="90.00" x="883.90" y="139.77"/>
        <vehicle id="4_3" eclass="HBEFA3/PC_G_EU4" CO2="2624.72" CO="164.78" HC="0.81" NOx="1.20" PMx="0.07" fuel="1.13" electricity="0.00" noise="55.94" route="routediverge" type="4" waiting="0.00" lane="diverge_0" pos="12.75" speed="0.00" angle="135.00" x="614.94" y="124.15"/>
        <vehicle id="4_4" eclass="HBEFA3/PC_G_EU4" CO2="2624.72" CO="164.78" HC="0.81" NOx="1.20" PMx="0.07" fuel="1.13" electricity="0.00" noise="55.94" route="routediverge" type="4" waiting="0.00" lane="diverge_0" pos="124.53" speed="0.00" angle="135.00" x="689.75" y="49.34"/>
    </timestep>
    <timestep time="0.40">
        <vehicle id="1_0" eclass="HBEFA3/PC_G_EU4" CO2="2643.97" CO="162.00" HC="0.80" NOx="1.21" PMx="0.07" fuel="1.14" electricity="0.00" noise="59.98" route="routemerge" type="1" waiting="0.00" lane="merge_0" pos="8.05" speed="0.18" angle="45.00" x="335.54" y="74.62"/>
        <vehicle id="1_1" eclass="HBEFA3/PC_G_EU4" CO2="2651.22" CO="161.80" HC="0.80" NOx="1.21" PMx="0.07" fuel="1.14" electricity="0.00" noise="60.41" route="routeinflow_highway" type="1" waiting="0.00" lane="inflow_highway_0" pos="18.63" speed="0.20" angle="90.00" x="18.63" y="136.47"/>
        <vehicle id="1_2" eclass="HBEFA3/PC_G_EU4" CO2="2651.22" CO="161.80" HC="0.80" NOx="1.21" PMx="0.07" fuel="1.14" electricity="0.00" noise="60.41" route="routeinflow_highway" type="1" waiting="0.00" lane="inflow_highway_1" pos="16.54" speed="0.20" angle="90.00" x="16.54" y="139.77"/>
        <vehicle id="1_3" eclass="HBEFA3/PC_G_EU4" CO2="2651.22" CO="161.80" HC="0.80" NOx="1.21" PMx="0.07" fuel="1.14" electricity="0.00" noise="60.41" route="routecenter" type="1" waiting="0.00" lane="center_0" pos="44.24" speed="0.20" angle="90.00" x="443.99" y="136.47"/>
        <vehicle id="1_4" eclass="HBEFA3/PC_G_EU4" CO2="2646.18" CO="161.94" HC="0.80" NOx="1.21" PMx="0.07" fuel="1.14" electricity="0.00" noise="60.12" route="routecenter" type="1" waiting="0.00" lane="center_1" pos="48.42" speed="0.19" angle="90.00" x="448.19" y="139.77"/>
        <vehicle id="2_0" eclass="HBEFA3/PC_G_EU4" CO2="2651.22" CO="161.80" HC="0.80" NOx="1.21" PMx="0.07" fuel="1.14" electricity="0.00" noise="60.41" route="routecenter" type="2" waiting="0.00" lane="center_0" pos="164.90" speed="0.20" angle="90.00" x="565.20" y="136.47"/>
        <vehicle id="2_1" eclass="HBEFA3/PC_G_EU4" CO2="2651.22" CO="161.80" HC="0.80" NOx="1.21" PMx="0.07" fuel="1.14" electricity="0.00" noise="60.41" route="routecenter" type="2" waiting="0.00" lane="center_1" pos="157.12" speed="0.20" angle="90.00" x="557.38" y="139.77"/>
        <vehicle id="2_2" eclass="HBEFA3/PC_G_EU4" CO2="2648.62" CO="161.87" HC="0.80" NOx="1.21" PMx="0.07" fuel="1.14" electricity="0.00" noise="60.26" route="routeinflow_merge" type="2" waiting="0.00" lane="inflow_merge_0" pos="84.26" speed="0.19" angle="45.00" x="319.33" y="58.41"/>
        <vehicle id="2_3" eclass="HBEFA3/PC_G_EU4" CO2="2651.22" CO="161.80" HC="0.80" NOx="1.21" PMx="0.07" fuel="1.14" electricity="0.00" noise="60.41" route="routeleft" type="2" waiting="0.00" lane="left_0" pos="107.49" speed="0.20" angle="90.00" x="204.63" y="136.47"/>
        <vehicle id="2_4" eclass="HBEFA3/PC_G_EU4" CO2="2643.66" CO="162.01" HC="0.80" NOx="1.21" PMx="0.07" fuel="1.14" electricity="0.00" noise="59.95" route="routeleft" type="2" waiting="0.00" lane="left_1" pos="85.51" speed="0.18" angle="90.00" x="183.24" y="139.77"/>
        <vehicle id="3_0" eclass="HBEFA3/PC_G_EU4" CO2="2642.01" CO="162.06" HC="0.80" NOx="1.21" PMx="0.07" fuel="1.14" electricity="0.00" noise="59.84" route="routeleft" type="3" waiting="0.00" lane="left_0" pos="219.89" speed="0.17" angle="90.00" x="314.04" y="136.47"/>
        <vehicle id="3_1" eclass="HBEFA3/PC_G_EU4" CO2="2636.25" CO="162.28" HC="0.80" NOx="1.21" PMx="0.07" fuel="1.13" electricity="0.00" noise="59.42" route="routeleft" type="3" waiting="0.00" lane="left_1" pos="224.33" speed="0.16" angle="90.00" x="318.36" y="139.77"/>
        <vehicle id="3_2" eclass="HBEFA3/PC_G_EU4" CO2="2651.22" CO="161.80" HC="0.80" NOx="1.21" PMx="0.07" fuel="1.14" electricity="0.00" noise="60.41" route="routeright" type="3" waiting="0.00" lane="right_0" pos="49.52" speed="0.20" angle="90.00" x="656.51" y="136.47"/>
        <vehicle id="3_3" eclass="HBEFA3/PC_G_EU4" CO2="2634.82" CO="162.34" HC="0.80" NOx="1.21" PMx="0.07" fuel="1.13" electricity="0.00" noise="59.30" route="routeright" type="3" waiting="0.00" lane="right_1" pos="50.14" speed="0.15" angle="90.00" x="657.12" y="139.77"/>
        <vehicle id="3_4" eclass="HBEFA3/PC_G_EU4" CO2="2646.89" CO="161.92" HC="0.80" NOx="1.21" PMx="0.07" fuel="1.14" electricity="0.00" noise="60.16" route="routeright" type="3" waiting="0.00" lane="right_0" pos="159.36" speed="0.19" angle="90.00" x="764.16" y="136.47"/>
        <vehicle id="4_0" eclass="HBEFA3/PC_G_EU4" CO2="2651.22" CO="161.80" HC="0.80" NOx="1.21" PMx="0.07" fuel="1.14" electricity="0.00" noise="60.41" route="routeright" type="4" waiting="0.00" lane="right_1" pos="160.76" speed="0.20" angle="90.00" x="765.54" y="139.77"/>
        <vehicle id="4_1" eclass="HBEFA3/PC_G_EU4" CO2="2651.22" CO="161.80" HC="0.80" NOx="1.21" PMx="0.07" fuel="1.14" electricity="0.00" noise="60.41" route="routeright" type="4" waiting="0.00" lane="right_0" pos="289.48" speed="0.20" angle="90.00" x="891.68" y="136.47"/>
        <vehicle id="4_2" eclass="HBEFA3/PC_G_EU4" CO2="2651.22" CO="161.80" HC="0.80" NOx="1.21" PMx="0.07" fuel="1.14" electricity="0.00" noise="60.41" route="routeright" type="4" waiting="0.00" lane="right_1" pos="281.58" speed="0.20" angle="90.00" x="883.94" y="139.77"/>
        <vehicle id="4_3" eclass="HBEFA3/PC_G_EU4" CO2="2650.73" CO="161.82" HC="0.80" NOx="1.21" PMx="0.07" fuel="1.14" electricity="0.00" noise="60.39" route="routediverge" type="4" waiting="0.00" lane="diverge_0" pos="12.79" speed="0.20" angle="135.00" x="614.97" y="124.12"/>
        <vehicle id="4_4" eclass="HBEFA3/PC_G_EU4" CO2="2651.22" CO="161.80" HC="0.80" NOx="1.21" PMx="0.07" fuel="1.14" electricity="0.00" noise="60.41" route="routediverge" type="4" waiting="0.00" lane="diverge_0" pos="124.57" speed="0.20" angle="135.00" x="689.78" y="49.31"/>
    </timestep>
    <timestep time="0.60">
        <vehicle id="1_0" eclass="HBEFA3/PC_G_EU4" CO2="2659.08" CO="159.31" HC="0.79" NOx="1.21" PMx="0.06" fuel="1.14" electricity="0.00" noise="59.86" route="routemerge" type="1" waiting="0.00" lane="merge_0" pos="8.12" speed="0.35" angle="45.00" x="335.59" y="74.67"/>
        <vehicle id="1_1" eclass="HBEFA3/PC_G_EU4" CO2="2678.34" CO="158.88" HC="0.79" NOx="1.22" PMx="0.07" fuel="1.15" electricity="0.00" noise="60.49" route="routeinflow_highway" type="1" waiting="0.00" lane="inflow_highway_0" pos="18.71" speed="0.40" angle="90.00" x="18.71" y="136.47"/>
        <vehicle id="1_2" eclass="HBEFA3/PC_G_EU4" CO2="2678.34" CO="158.88" HC="0.79" NOx="1.22" PMx="0.07" fuel="1.15" electricity="0.00" noise="60.49" route="routeinflow_highway" type="1" waiting="0.00" lane="inflow_highway_1" pos="16.62" speed="0.40" angle="90.00" x="16.62" y="139.77"/>
        <vehicle id="1_3" eclass="HBEFA3/PC_G_EU4" CO2="2643.17" CO="159.21" HC="0.79" NOx="1.20" PMx="0.06" fuel="1.14" electricity="0.00" noise="59.13" route="routecenter" type="1" waiting="0.00" lane="center_0" pos="44.30" speed="0.34" angle="90.00" x="444.05" y="136.47"/>
        <vehicle id="1_4" eclass="HBEFA3/PC_G_EU4" CO2="2651.90" CO="159.30" HC="0.79" NOx="1.21" PMx="0.06" fuel="1.14" electricity="0.00" noise="59.54" route="routecenter" type="1" waiting="0.00" lane="center_1" pos="48.49" speed="0.34" angle="90.00" x="448.26" y="139.77"/>
        <vehicle id="2_0" eclass="HBEFA3/PC_G_EU4" CO2="2675.34" CO="158.90" HC="0.79" NOx="1.22" PMx="0.07" fuel="1.15" electricity="0.00" noise="60.39" route="routecenter" type="2" waiting="0.00" lane="center_0" pos="164.98" speed="0.40" angle="90.00" x="565.27" y="136.47"/>
        <vehicle id="2_1" eclass="HBEFA3/PC_G_EU4" CO2="2649.88" CO="159.12" HC="0.79" NOx="1.21" PMx="0.06" fuel="1.14" electricity="0.00" noise="59.42" route="routecenter" type="2" waiting="0.00" lane="center_1" pos="157.19" speed="0.35" angle="90.00" x="557.45" y="139.77"/>
        <vehicle id="2_2" eclass="HBEFA3/PC_G_EU4" CO2="2677.41" CO="158.98" HC="0.79" NOx="1.22" PMx="0.07" fuel="1.15" electricity="0.00" noise="60.49" route="routeinflow_merge" type="2" waiting="0.00" lane="inflow_merge_0" pos="84.34" speed="0.39" angle="45.00" x="319.39" y="58.47"/>
        <vehicle id="2_3" eclass="HBEFA3/PC_G_EU4" CO2="2678.34" CO="158.88" HC="0.79" NOx="1.22" PMx="0.07" fuel="1.15" electricity="0.00" noise="60.49" route="routeleft" type="2" waiting="0.00" lane="left_0" pos="107.57" speed="0.40" angle="90.00" x="204.71" y="136.47"/>
        <vehicle id="2_4" eclass="HBEFA3/PC_G_EU4" CO2="2675.53" CO="159.18" HC="0.79" NOx="1.22" PMx="0.07" fuel="1.15" electricity="0.00" noise="60.48" route="routeleft" type="2" waiting="0.00" lane="left_1" pos="85.59" speed="0.38" angle="90.00" x="183.31" y="139.77"/>
        <vehicle id="3_0" eclass="HBEFA3/PC_G_EU4" CO2="2674.85" CO="159.25" HC="0.79" NOx="1.22" PMx="0.07" fuel="1.15" electricity="0.00" noise="60.48" route="routeleft" type="3" waiting="0.00" lane="left_0" pos="219.97" speed="0.37" angle="90.00" x="314.12" y="136.47"/>
        <vehicle id="3_1" eclass="HBEFA3/PC_G_EU4" CO2="2672.25" CO="159.53" HC="0.79" NOx="1.22" PMx="0.07" fuel="1.15" electricity="0.00" noise="60.47" route="routeleft" type="3" waiting="0.00" lane="left_1" pos="224.40" speed="0.36" angle="90.00" x="318.43" y="139.77"/>
        <vehicle id="3_2" eclass="HBEFA3/PC_G_EU4" CO2="2678.34" CO="158.88" HC="0.79" NOx="1.22" PMx="0.07" fuel="1.15" electricity="0.00" noise="60.49" route="routeright" type="3" waiting="0.00" lane="right_0" pos="49.60" speed="0.40" angle="90.00" x="656.59" y="136.47"/>
        <vehicle id="3_3" eclass="HBEFA3/PC_G_EU4" CO2="2639.60" CO="160.03" HC="0.79" NOx="1.20" PMx="0.06" fuel="1.13" electricity="0.00" noise="59.07" route="routeright" type="3" waiting="0.00" lane="right_1" pos="50.19" speed="0.29" angle="90.00" x="657.17" y="139.77"/>
        <vehicle id="3_4" eclass="HBEFA3/PC_G_EU4" CO2="2676.78" CO="159.04" HC="0.79" NOx="1.22" PMx="0.07" fuel="1.15" electricity="0.00" noise="60.49" route="routeright" type="3" waiting="0.00" lane="right_0" pos="159.44" speed="0.39" angle="90.00" x="764.24" y="136.47"/>
        <vehicle id="4_0" eclass="HBEFA3/PC_G_EU4" CO2="2678.34" CO="158.88" HC="0.79" NOx="1.22" PMx="0.07" fuel="1.15" electricity="0.00" noise="60.49" route="routeright" type="4" waiting="0.00" lane="right_1" pos="160.84" speed="0.40" angle="90.00" x="765.61" y="139.77"/>
        <vehicle id="4_1" eclass="HBEFA3/PC_G_EU4" CO2="2647.91" CO="159.15" HC="0.79" NOx="1.21" PMx="0.06" fuel="1.14" electricity="0.00" noise="59.34" route="routeright" type="4" waiting="0.00" lane="right_0" pos="289.55" speed="0.35" angle="90.00" x="891.75" y="136.47"/>
        <vehicle id="4_2" eclass="HBEFA3/PC_G_EU4" CO2="2652.52" CO="159.09" HC="0.79" NOx="1.21" PMx="0.06" fuel="1.14" electricity="0.00" noise="59.53" route="routeright" type="4" waiting="0.00" lane="right_1" pos="281.65" speed="0.36" angle="90.00" x="884.01" y="139.77"/>
        <vehicle id="4_3" eclass="HBEFA3/PC_G_EU4" CO2="2659.37" CO="159.04" HC="0.79" NOx="1.21" PMx="0.06" fuel="1.14" electricity="0.00" noise="59.81" route="routediverge" type="4" waiting="0.00" lane="diverge_0" pos="12.86" speed="0.37" angle="135.00" x="615.02" y="124.07"/>
        <vehicle id="4_4" eclass="HBEFA3/PC_G_EU4" CO2="2678.34" CO="158.88" HC="0.79" NOx="1.22" PMx="0.07" fuel="1.15" electricity="0.00" noise="60.49" route="routediverge" type="4" waiting="0.00" lane="diverge_0" pos="124.65" speed="0.40" angle="135.00" x="689.83" y="49.25"/>
    </timestep>
    <timestep time="0.80">
        <vehicle id="1_0" eclass="HBEFA3/PC_G_EU4" CO2="2635.45" CO="156.84" HC="0.78" NOx="1.20" PMx="0.06" fuel="1.13" electricity="0.00" noise="58.63" route="routemerge" type="1" waiting="0.00" lane="merge_0" pos="8.21" speed="0.47" angle="45.00" x="335.65" y="74.73"/>
        <vehicle id="1_1" eclass="HBEFA3/PC_G_EU4" CO2="2664.92" CO="155.97" HC="0.77" NOx="1.21" PMx="0.06" fuel="1.15" electricity="0.00" noise="59.49" route="routeinflow_highway" type="1" waiting="0.00" lane="inflow_highway_0" pos="18.82" speed="0.55" angle="90.00" x="18.82" y="136.47"/>
        <vehicle id="1_2" eclass="HBEFA3/PC_G_EU4" CO2="2655.02" CO="155.99" HC="0.77" NOx="1.20" PMx="0.06" fuel="1.14" electricity="0.00" noise="59.21" route="routeinflow_highway" type="1" waiting="0.00" lane="inflow_highway_1" pos="16.73" speed="0.54" angle="90.00" x="16.73" y="139.77"/>
        <vehicle id="1_3" eclass="HBEFA3/PC_G_EU4" CO2="2697.60" CO="156.87" HC="0.78" NOx="1.22" PMx="0.06" fuel="1.16" electricity="0.00" noise="60.54" route="routecenter" type="1" waiting="0.00" lane="center_0" pos="44.41" speed="0.54" angle="90.00" x="444.16" y="136.47"/>
        <vehicle id="1_4" eclass="HBEFA3/PC_G_EU4" CO2="2698.35" CO="156.79" HC="0.78" NOx="1.22" PMx="0.06" fuel="1.16" electricity="0.00" noise="60.54" route="routecenter" type="1" waiting="0.00" lane="center_1" pos="48.60" speed="0.54" angle="90.00" x="448.37" y="139.77"/>
        <vehicle id="2_0" eclass="HBEFA3/PC_G_EU4" CO2="2652.67" CO="156.07" HC="0.77" NOx="1.20" PMx="0.06" fuel="1.14" electricity="0.00" noise="59.15" route="routecenter" type="2" waiting="0.00" lane="center_0" pos="165.09" speed="0.53" angle="90.00" x="565.38" y="136.47"/>
        <vehicle id="2_1" eclass="HBEFA3/PC_G_EU4" CO2="2699.41" CO="156.68" HC="0.78" NOx="1.22" PMx="0.06" fuel="1.16" electricity="0.00" noise="60.55" route="routecenter" type="2" waiting="0.00" lane="center_1" pos="157.31" speed="0.55" angle="90.00" x="557.56" y="139.77"/>
        <vehicle id="2_2" eclass="HBEFA3/PC_G_EU4" CO2="2684.83" CO="156.07" HC="0.77" NOx="1.22" PMx="0.06" fuel="1.15" electricity="0.00" noise="60.05" route="routeinflow_merge" type="2" waiting="0.00" lane="inflow_merge_0" pos="84.45" speed="0.57" angle="45.00" x="319.47" y="58.55"/>
        <vehicle id="2_3" eclass="HBEFA3/PC_G_EU4" CO2="2706.10" CO="156.00" HC="0.77" NOx="1.23" PMx="0.06" fuel="1.16" electricity="0.00" noise="60.57" route="routeleft" type="2" waiting="0.00" lane="left_0" pos="107.69" speed="0.60" angle="90.00" x="204.82" y="136.47"/>
        <vehicle id="2_4" eclass="HBEFA3/PC_G_EU4" CO2="2703.22" CO="156.29" HC="0.77" NOx="1.23" PMx="0.06" fuel="1.16" electricity="0.00" noise="60.56" route="routeleft" type="2" waiting="0.00" lane="left_1" pos="85.71" speed="0.58" angle="90.00" x="183.43" y="139.77"/>
        <vehicle id="3_0" eclass="HBEFA3/PC_G_EU4" CO2="2650.56" CO="156.41" HC="0.77" NOx="1.20" PMx="0.06" fuel="1.14" electricity="0.00" noise="59.11" route="routeleft" type="3" waiting="0.00" lane="left_0" pos="220.07" speed="0.51" angle="90.00" x="314.21" y="136.47"/>
        <vehicle id="3_1" eclass="HBEFA3/PC_G_EU4" CO2="2691.95" CO="156.63" HC="0.78" NOx="1.22" PMx="0.06" fuel="1.16" electricity="0.00" noise="60.34" route="routeleft" type="3" waiting="0.00" lane="left_1" pos="224.51" speed="0.55" angle="90.00" x="318.54" y="139.77"/>
        <vehicle id="3_2" eclass="HBEFA3/PC_G_EU4" CO2="2706.10" CO="156.00" HC="0.77" NOx="1.23" PMx="0.06" fuel="1.16" electricity="0.00" noise="60.57" route="routeright" type="3" waiting="0.00" lane="right_0" pos="49.72" speed="0.60" angle="90.00" x="656.71" y="136.47"/>
        <vehicle id="3_3" eclass="HBEFA3/PC_G_EU4" CO2="2682.04" CO="157.63" HC="0.78" NOx="1.22" PMx="0.06" fuel="1.15" electricity="0.00" noise="60.28" route="routeright" type="3" waiting="0.00" lane="right_1" pos="50.29" speed="0.48" angle="90.00" x="657.27" y="139.77"/>
        <vehicle id="3_4" eclass="HBEFA3/PC_G_EU4" CO2="2692.84" CO="156.15" HC="0.77" NOx="1.22" PMx="0.06" fuel="1.16" electricity="0.00" noise="60.27" route="routeright" type="3" waiting="0.00" lane="right_0" pos="159.56" speed="0.58" angle="90.00" x="764.35" y="136.47"/>
        <vehicle id="4_0" eclass="HBEFA3/PC_G_EU4" CO2="2706.10" CO="156.00" HC="0.77" NOx="1.23" PMx="0.06" fuel="1.16" electricity="0.00" noise="60.57" route="routeright" type="4" waiting="0.00" lane="right_1" pos="160.96" speed="0.60" angle="90.00" x="765.73" y="139.77"/>
        <vehicle id="4_1" eclass="HBEFA3/PC_G_EU4" CO2="2698.89" CO="156.74" HC="0.78" NOx="1.22" PMx="0.06" fuel="1.16" electricity="0.00" noise="60.55" route="routeright" type="4" waiting="0.00" lane="right_0" pos="289.66" speed="0.55" angle="90.00" x="891.86" y="136.47"/>
        <vehicle id="4_2" eclass="HBEFA3/PC_G_EU4" CO2="2655.17" CO="156.67" HC="0.78" NOx="1.20" PMx="0.06" fuel="1.14" electricity="0.00" noise="59.28" route="routeright" type="4" waiting="0.00" lane="right_1" pos="281.75" speed="0.50" angle="90.00" x="884.11" y="139.77"/>
        <vehicle id="4_3" eclass="HBEFA3/PC_G_EU4" CO2="2647.84" CO="156.52" HC="0.77" NOx="1.20" PMx="0.06" fuel="1.14" electricity="0.00" noise="59.03" route="routediverge" type="4" waiting="0.00" lane="diverge_0" pos="12.96" speed="0.50" angle="135.00" x="615.09" y="124.00"/>
        <vehicle id="4_4" eclass="HBEFA3/PC_G_EU4" CO2="2668.37" CO="155.97" HC="0.77" NOx="1.21" PMx="0.06" fuel="1.15" electricity="0.00" noise="59.59" route="routediverge" type="4" waiting="0.00" lane="diverge_0" pos="124.77" speed="0.56" angle="135.00" x="689.90" y="49.18"/>
    </timestep>
    <timestep time="1.00">
        <vehicle id="1_0" eclass="HBEFA3/PC_G_EU4" CO2="2715.52" CO="155.04" HC="0.77" NOx="1.23" PMx="0.06" fuel="1.17" electricity="0.00" noise="60.59" route="routemerge" type="1" waiting="0.00" lane="merge_0" pos="8.35" speed="0.67" angle="45.00" x="335.73" y="74.81"/>