<?xml version="1.0" encoding="UTF-8"?>

<!-- generated on Mon Nov 19 21:38:40 2018 by SUMO gui Version b'v0_31_0-812-g1d4338ab80'
<?xml version="1.0" encoding="UTF-8"?>

<configuration xmlns:xsi="http://www.w3.org/2001/XMLSchema-instance" xsi:noNamespaceSchemaLocation="http://sumo.dlr.de/xsd/sumoConfiguration.xsd">

    <input>
        <net-file value="/Users/barryfan/flow/flow/scenarios/debug/cfg/merge-baseline_20181119-2138391542692319.490606.net.xml"/>
        <route-files value="/Users/barryfan/flow/flow/scenarios/debug/cfg/merge-baseline_20181119-2138391542692319.490606.rou.xml"/>
        <additional-files value="/Users/barryfan/flow/flow/scenarios/debug/cfg/merge-baseline_20181119-2138391542692319.490606.add.xml"/>
    </input>

    <output>
        <emission-output value="./data/merge-baseline_20181119-2138391542692319.490606-emission.xml"/>
    </output>

    <time>
        <begin value="0"/>
        <step-length value="0.2"/>
    </time>

    <processing>
        <lateral-resolution value="0.2"/>
        <time-to-teleport value="-1"/>
    </processing>

    <report>
        <no-step-log value="true"/>
    </report>

    <traci_server>
        <remote-port value="63675"/>
    </traci_server>

    <gui_only>
        <gui-settings-file value="/Users/barryfan/flow/flow/scenarios/debug/cfg/merge-baseline_20181119-2138391542692319.490606.gui.cfg"/>
        <tracker-interval value="0.2"/>
    </gui_only>

</configuration>
-->

<emission-export xmlns:xsi="http://www.w3.org/2001/XMLSchema-instance" xsi:noNamespaceSchemaLocation="http://sumo.dlr.de/xsd/emission_file.xsd">
    <timestep time="0.00">
        <vehicle id="1_0" eclass="HBEFA3/PC_G_EU4" CO2="2624.72" CO="164.78" HC="0.81" NOx="1.20" PMx="0.07" fuel="1.13" electricity="0.00" noise="55.94" route="routemerge" type="1" waiting="0.00" lane="merge_0" pos="6.18" speed="0.00" angle="45.00" x="334.36" y="73.44"/>
        <vehicle id="1_1" eclass="HBEFA3/PC_G_EU4" CO2="2624.72" CO="164.78" HC="0.81" NOx="1.20" PMx="0.07" fuel="1.13" electricity="0.00" noise="55.94" route="routediverge" type="1" waiting="0.00" lane="diverge_0" pos="20.31" speed="0.00" angle="135.00" x="620.00" y="119.09"/>
        <vehicle id="1_2" eclass="HBEFA3/PC_G_EU4" CO2="2624.72" CO="164.78" HC="0.81" NOx="1.20" PMx="0.07" fuel="1.13" electricity="0.00" noise="55.94" route="routediverge" type="1" waiting="0.00" lane="diverge_0" pos="138.40" speed="0.00" angle="135.00" x="699.03" y="40.05"/>
        <vehicle id="1_3" eclass="HBEFA3/PC_G_EU4" CO2="2624.72" CO="164.78" HC="0.81" NOx="1.20" PMx="0.07" fuel="1.13" electricity="0.00" noise="55.94" route="routeinflow_highway" type="1" waiting="0.00" lane="inflow_highway_0" pos="67.08" speed="0.00" angle="90.00" x="67.08" y="136.47"/>
        <vehicle id="1_4" eclass="HBEFA3/PC_G_EU4" CO2="2624.72" CO="164.78" HC="0.81" NOx="1.20" PMx="0.07" fuel="1.13" electricity="0.00" noise="55.94" route="routeinflow_highway" type="1" waiting="0.00" lane="inflow_highway_1" pos="61.55" speed="0.00" angle="90.00" x="61.55" y="139.77"/>
        <vehicle id="2_0" eclass="HBEFA3/PC_G_EU4" CO2="2624.72" CO="164.78" HC="0.81" NOx="1.20" PMx="0.07" fuel="1.13" electricity="0.00" noise="55.94" route="routeleft" type="2" waiting="0.00" lane="left_0" pos="84.78" speed="0.00" angle="90.00" x="182.52" y="136.47"/>
        <vehicle id="2_1" eclass="HBEFA3/PC_G_EU4" CO2="2624.72" CO="164.78" HC="0.81" NOx="1.20" PMx="0.07" fuel="1.13" electricity="0.00" noise="55.94" route="routeleft" type="2" waiting="0.00" lane="left_1" pos="85.61" speed="0.00" angle="90.00" x="183.33" y="139.77"/>
        <vehicle id="2_2" eclass="HBEFA3/PC_G_EU4" CO2="2624.72" CO="164.78" HC="0.81" NOx="1.20" PMx="0.07" fuel="1.13" electricity="0.00" noise="55.94" route="routeleft" type="2" waiting="0.00" lane="left_0" pos="208.04" speed="0.00" angle="90.00" x="302.51" y="136.47"/>
        <vehicle id="2_3" eclass="HBEFA3/PC_G_EU4" CO2="2624.72" CO="164.78" HC="0.81" NOx="1.20" PMx="0.07" fuel="1.13" electricity="0.00" noise="55.94" route="routeleft" type="2" waiting="0.00" lane="left_1" pos="209.46" speed="0.00" angle="90.00" x="303.89" y="139.77"/>
        <vehicle id="2_4" eclass="HBEFA3/PC_G_EU4" CO2="2624.72" CO="164.78" HC="0.81" NOx="1.20" PMx="0.07" fuel="1.13" electricity="0.00" noise="55.94" route="routeinflow_merge" type="2" waiting="0.00" lane="inflow_merge_0" pos="26.96" speed="0.00" angle="45.00" x="278.81" y="17.89"/>
        <vehicle id="3_0" eclass="HBEFA3/PC_G_EU4" CO2="2624.72" CO="164.78" HC="0.81" NOx="1.20" PMx="0.07" fuel="1.13" electricity="0.00" noise="55.94" route="routecenter" type="3" waiting="0.00" lane="center_0" pos="39.94" speed="0.00" angle="90.00" x="439.67" y="136.47"/>
        <vehicle id="3_1" eclass="HBEFA3/PC_G_EU4" CO2="2624.72" CO="164.78" HC="0.81" NOx="1.20" PMx="0.07" fuel="1.13" electricity="0.00" noise="55.94" route="routecenter" type="3" waiting="0.00" lane="center_1" pos="43.45" speed="0.00" angle="90.00" x="443.20" y="139.77"/>
        <vehicle id="3_2" eclass="HBEFA3/PC_G_EU4" CO2="2624.72" CO="164.78" HC="0.81" NOx="1.20" PMx="0.07" fuel="1.13" electricity="0.00" noise="55.94" route="routecenter" type="3" waiting="0.00" lane="center_0" pos="163.13" speed="0.00" angle="90.00" x="563.41" y="136.47"/>
        <vehicle id="3_3" eclass="HBEFA3/PC_G_EU4" CO2="2624.72" CO="164.78" HC="0.81" NOx="1.20" PMx="0.07" fuel="1.13" electricity="0.00" noise="55.94" route="routecenter" type="3" waiting="0.00" lane="center_1" pos="162.00" speed="0.00" angle="90.00" x="562.28" y="139.77"/>
        <vehicle id="3_4" eclass="HBEFA3/PC_G_EU4" CO2="2624.72" CO="164.78" HC="0.81" NOx="1.20" PMx="0.07" fuel="1.13" electricity="0.00" noise="55.94" route="routeright" type="3" waiting="0.00" lane="right_0" pos="84.47" speed="0.00" angle="90.00" x="690.76" y="136.47"/>
        <vehicle id="4_0" eclass="HBEFA3/PC_G_EU4" CO2="2624.72" CO="164.78" HC="0.81" NOx="1.20" PMx="0.07" fuel="1.13" electricity="0.00" noise="55.94" route="routeright" type="4" waiting="0.00" lane="right_1" pos="79.19" speed="0.00" angle="90.00" x="685.59" y="139.77"/>
        <vehicle id="4_1" eclass="HBEFA3/PC_G_EU4" CO2="2624.72" CO="164.78" HC="0.81" NOx="1.20" PMx="0.07" fuel="1.13" electricity="0.00" noise="55.94" route="routeright" type="4" waiting="0.00" lane="right_0" pos="205.16" speed="0.00" angle="90.00" x="809.05" y="136.47"/>
        <vehicle id="4_2" eclass="HBEFA3/PC_G_EU4" CO2="2624.72" CO="164.78" HC="0.81" NOx="1.20" PMx="0.07" fuel="1.13" electricity="0.00" noise="55.94" route="routeright" type="4" waiting="0.00" lane="right_1" pos="205.79" speed="0.00" angle="90.00" x="809.66" y="139.77"/>
        <vehicle id="4_3" eclass="HBEFA3/PC_G_EU4" CO2="2624.72" CO="164.78" HC="0.81" NOx="1.20" PMx="0.07" fuel="1.13" electricity="0.00" noise="55.94" route="routeright" type="4" waiting="0.00" lane="right_0" pos="321.49" speed="0.00" angle="90.00" x="923.06" y="136.47"/>
        <vehicle id="4_4" eclass="HBEFA3/PC_G_EU4" CO2="2624.72" CO="164.78" HC="0.81" NOx="1.20" PMx="0.07" fuel="1.13" electricity="0.00" noise="55.94" route="routeright" type="4" waiting="0.00" lane="right_1" pos="325.66" speed="0.00" angle="90.00" x="927.15" y="139.77"/>
    </timestep>
    <timestep time="0.20">
        <vehicle id="1_0" eclass="HBEFA3/PC_G_EU4" CO2="2624.72" CO="164.78" HC="0.81" NOx="1.20" PMx="0.07" fuel="1.13" electricity="0.00" noise="55.94" route="routemerge" type="1" waiting="0.00" lane="merge_0" pos="6.18" speed="0.00" angle="45.00" x="334.36" y="73.44"/>
        <vehicle id="1_1" eclass="HBEFA3/PC_G_EU4" CO2="2624.72" CO="164.78" HC="0.81" NOx="1.20" PMx="0.07" fuel="1.13" electricity="0.00" noise="55.94" route="routediverge" type="1" waiting="0.00" lane="diverge_0" pos="20.31" speed="0.00" angle="135.00" x="620.00" y="119.09"/>
        <vehicle id="1_2" eclass="HBEFA3/PC_G_EU4" CO2="2624.72" CO="164.78" HC="0.81" NOx="1.20" PMx="0.07" fuel="1.13" electricity="0.00" noise="55.94" route="routediverge" type="1" waiting="0.00" lane="diverge_0" pos="138.40" speed="0.00" angle="135.00" x="699.03" y="40.05"/>
        <vehicle id="1_3" eclass="HBEFA3/PC_G_EU4" CO2="2624.72" CO="164.78" HC="0.81" NOx="1.20" PMx="0.07" fuel="1.13" electricity="0.00" noise="55.94" route="routeinflow_highway" type="1" waiting="0.00" lane="inflow_highway_0" pos="67.08" speed="0.00" angle="90.00" x="67.08" y="136.47"/>
        <vehicle id="1_4" eclass="HBEFA3/PC_G_EU4" CO2="2624.72" CO="164.78" HC="0.81" NOx="1.20" PMx="0.07" fuel="1.13" electricity="0.00" noise="55.94" route="routeinflow_highway" type="1" waiting="0.00" lane="inflow_highway_1" pos="61.55" speed="0.00" angle="90.00" x="61.55" y="139.77"/>
        <vehicle id="2_0" eclass="HBEFA3/PC_G_EU4" CO2="2624.72" CO="164.78" HC="0.81" NOx="1.20" PMx="0.07" fuel="1.13" electricity="0.00" noise="55.94" route="routeleft" type="2" waiting="0.00" lane="left_0" pos="84.78" speed="0.00" angle="90.00" x="182.52" y="136.47"/>
        <vehicle id="2_1" eclass="HBEFA3/PC_G_EU4" CO2="2624.72" CO="164.78" HC="0.81" NOx="1.20" PMx="0.07" fuel="1.13" electricity="0.00" noise="55.94" route="routeleft" type="2" waiting="0.00" lane="left_1" pos="85.61" speed="0.00" angle="90.00" x="183.33" y="139.77"/>
        <vehicle id="2_2" eclass="HBEFA3/PC_G_EU4" CO2="2624.72" CO="164.78" HC="0.81" NOx="1.20" PMx="0.07" fuel="1.13" electricity="0.00" noise="55.94" route="routeleft" type="2" waiting="0.00" lane="left_0" pos="208.04" speed="0.00" angle="90.00" x="302.51" y="136.47"/>
        <vehicle id="2_3" eclass="HBEFA3/PC_G_EU4" CO2="2624.72" CO="164.78" HC="0.81" NOx="1.20" PMx="0.07" fuel="1.13" electricity="0.00" noise="55.94" route="routeleft" type="2" waiting="0.00" lane="left_1" pos="209.46" speed="0.00" angle="90.00" x="303.89" y="139.77"/>
        <vehicle id="2_4" eclass="HBEFA3/PC_G_EU4" CO2="2624.72" CO="164.78" HC="0.81" NOx="1.20" PMx="0.07" fuel="1.13" electricity="0.00" noise="55.94" route="routeinflow_merge" type="2" waiting="0.00" lane="inflow_merge_0" pos="26.96" speed="0.00" angle="45.00" x="278.81" y="17.89"/>
        <vehicle id="3_0" eclass="HBEFA3/PC_G_EU4" CO2="2624.72" CO="164.78" HC="0.81" NOx="1.20" PMx="0.07" fuel="1.13" electricity="0.00" noise="55.94" route="routecenter" type="3" waiting="0.00" lane="center_0" pos="39.94" speed="0.00" angle="90.00" x="439.67" y="136.47"/>
        <vehicle id="3_1" eclass="HBEFA3/PC_G_EU4" CO2="2624.72" CO="164.78" HC="0.81" NOx="1.20" PMx="0.07" fuel="1.13" electricity="0.00" noise="55.94" route="routecenter" type="3" waiting="0.00" lane="center_1" pos="43.45" speed="0.00" angle="90.00" x="443.20" y="139.77"/>
        <vehicle id="3_2" eclass="HBEFA3/PC_G_EU4" CO2="2624.72" CO="164.78" HC="0.81" NOx="1.20" PMx="0.07" fuel="1.13" electricity="0.00" noise="55.94" route="routecenter" type="3" waiting="0.00" lane="center_0" pos="163.13" speed="0.00" angle="90.00" x="563.41" y="136.47"/>
        <vehicle id="3_3" eclass="HBEFA3/PC_G_EU4" CO2="2624.72" CO="164.78" HC="0.81" NOx="1.20" PMx="0.07" fuel="1.13" electricity="0.00" noise="55.94" route="routecenter" type="3" waiting="0.00" lane="center_1" pos="162.00" speed="0.00" angle="90.00" x="562.28" y="139.77"/>
        <vehicle id="3_4" eclass="HBEFA3/PC_G_EU4" CO2="2624.72" CO="164.78" HC="0.81" NOx="1.20" PMx="0.07" fuel="1.13" electricity="0.00" noise="55.94" route="routeright" type="3" waiting="0.00" lane="right_0" pos="84.47" speed="0.00" angle="90.00" x="690.76" y="136.47"/>
        <vehicle id="4_0" eclass="HBEFA3/PC_G_EU4" CO2="2624.72" CO="164.78" HC="0.81" NOx="1.20" PMx="0.07" fuel="1.13" electricity="0.00" noise="55.94" route="routeright" type="4" waiting="0.00" lane="right_1" pos="79.19" speed="0.00" angle="90.00" x="685.59" y="139.77"/>
        <vehicle id="4_1" eclass="HBEFA3/PC_G_EU4" CO2="2624.72" CO="164.78" HC="0.81" NOx="1.20" PMx="0.07" fuel="1.13" electricity="0.00" noise="55.94" route="routeright" type="4" waiting="0.00" lane="right_0" pos="205.16" speed="0.00" angle="90.00" x="809.05" y="136.47"/>
        <vehicle id="4_2" eclass="HBEFA3/PC_G_EU4" CO2="2624.72" CO="164.78" HC="0.81" NOx="1.20" PMx="0.07" fuel="1.13" electricity="0.00" noise="55.94" route="routeright" type="4" waiting="0.00" lane="right_1" pos="205.79" speed="0.00" angle="90.00" x="809.66" y="139.77"/>
        <vehicle id="4_3" eclass="HBEFA3/PC_G_EU4" CO2="2624.72" CO="164.78" HC="0.81" NOx="1.20" PMx="0.07" fuel="1.13" electricity="0.00" noise="55.94" route="routeright" type="4" waiting="0.00" lane="right_0" pos="321.49" speed="0.00" angle="90.00" x="923.06" y="136.47"/>
        <vehicle id="4_4" eclass="HBEFA3/PC_G_EU4" CO2="2624.72" CO="164.78" HC="0.81" NOx="1.20" PMx="0.07" fuel="1.13" electricity="0.00" noise="55.94" route="routeright" type="4" waiting="0.00" lane="right_1" pos="325.66" speed="0.00" angle="90.00" x="927.15" y="139.77"/>
    </timestep>
    <timestep time="0.40">
        <vehicle id="1_0" eclass="HBEFA3/PC_G_EU4" CO2="2650.81" CO="161.81" HC="0.80" NOx="1.21" PMx="0.07" fuel="1.14" electricity="0.00" noise="60.39" route="routemerge" type="1" waiting="0.00" lane="merge_0" pos="6.22" speed="0.20" angle="45.00" x="334.38" y="73.46"/>
        <vehicle id="1_1" eclass="HBEFA3/PC_G_EU4" CO2="2650.80" CO="161.81" HC="0.80" NOx="1.21" PMx="0.07" fuel="1.14" electricity="0.00" noise="60.39" route="routediverge" type="1" waiting="0.00" lane="diverge_0" pos="20.35" speed="0.20" angle="135.00" x="620.03" y="119.06"/>
        <vehicle id="1_2" eclass="HBEFA3/PC_G_EU4" CO2="2650.83" CO="161.81" HC="0.80" NOx="1.21" PMx="0.07" fuel="1.14" electricity="0.00" noise="60.39" route="routediverge" type="1" waiting="0.00" lane="diverge_0" pos="138.44" speed="0.20" angle="135.00" x="699.06" y="40.03"/>
        <vehicle id="1_3" eclass="HBEFA3/PC_G_EU4" CO2="2650.80" CO="161.81" HC="0.80" NOx="1.21" PMx="0.07" fuel="1.14" electricity="0.00" noise="60.39" route="routeinflow_highway" type="1" waiting="0.00" lane="inflow_highway_0" pos="67.12" speed="0.20" angle="90.00" x="67.12" y="136.47"/>
        <vehicle id="1_4" eclass="HBEFA3/PC_G_EU4" CO2="2650.81" CO="161.81" HC="0.80" NOx="1.21" PMx="0.07" fuel="1.14" electricity="0.00" noise="60.39" route="routeinflow_highway" type="1" waiting="0.00" lane="inflow_highway_1" pos="61.59" speed="0.20" angle="90.00" x="61.59" y="139.77"/>
        <vehicle id="2_0" eclass="HBEFA3/PC_G_EU4" CO2="2650.81" CO="161.81" HC="0.80" NOx="1.21" PMx="0.07" fuel="1.14" electricity="0.00" noise="60.39" route="routeleft" type="2" waiting="0.00" lane="left_0" pos="84.82" speed="0.20" angle="90.00" x="182.56" y="136.47"/>
        <vehicle id="2_1" eclass="HBEFA3/PC_G_EU4" CO2="2650.81" CO="161.81" HC="0.80" NOx="1.21" PMx="0.07" fuel="1.14" electricity="0.00" noise="60.39" route="routeleft" type="2" waiting="0.00" lane="left_1" pos="85.64" speed="0.20" angle="90.00" x="183.37" y="139.77"/>
        <vehicle id="2_2" eclass="HBEFA3/PC_G_EU4" CO2="2650.81" CO="161.81" HC="0.80" NOx="1.21" PMx="0.07" fuel="1.14" electricity="0.00" noise="60.39" route="routeleft" type="2" waiting="0.00" lane="left_0" pos="208.08" speed="0.20" angle="90.00" x="302.55" y="136.47"/>
        <vehicle id="2_3" eclass="HBEFA3/PC_G_EU4" CO2="2650.81" CO="161.81" HC="0.80" NOx="1.21" PMx="0.07" fuel="1.14" electricity="0.00" noise="60.39" route="routeleft" type="2" waiting="0.00" lane="left_1" pos="209.50" speed="0.20" angle="90.00" x="303.92" y="139.77"/>
        <vehicle id="2_4" eclass="HBEFA3/PC_G_EU4" CO2="2650.77" CO="161.82" HC="0.80" NOx="1.21" PMx="0.07" fuel="1.14" electricity="0.00" noise="60.39" route="routeinflow_merge" type="2" waiting="0.00" lane="inflow_merge_0" pos="27.00" speed="0.20" angle="45.00" x="278.84" y="17.92"/>
        <vehicle id="3_0" eclass="HBEFA3/PC_G_EU4" CO2="2650.81" CO="161.81" HC="0.80" NOx="1.21" PMx="0.07" fuel="1.14" electricity="0.00" noise="60.39" route="routecenter" type="3" waiting="0.00" lane="center_0" pos="39.98" speed="0.20" angle="90.00" x="439.71" y="136.47"/>
        <vehicle id="3_1" eclass="HBEFA3/PC_G_EU4" CO2="2650.80" CO="161.81" HC="0.80" NOx="1.21" PMx="0.07" fuel="1.14" electricity="0.00" noise="60.39" route="routecenter" type="3" waiting="0.00" lane="center_1" pos="43.49" speed="0.20" angle="90.00" x="443.24" y="139.77"/>
        <vehicle id="3_2" eclass="HBEFA3/PC_G_EU4" CO2="2650.81" CO="161.81" HC="0.80" NOx="1.21" PMx="0.07" fuel="1.14" electricity="0.00" noise="60.39" route="routecenter" type="3" waiting="0.00" lane="center_0" pos="163.17" speed="0.20" angle="90.00" x="563.45" y="136.47"/>
        <vehicle id="3_3" eclass="HBEFA3/PC_G_EU4" CO2="2650.81" CO="161.81" HC="0.80" NOx="1.21" PMx="0.07" fuel="1.14" electricity="0.00" noise="60.39" route="routecenter" type="3" waiting="0.00" lane="center_1" pos="162.04" speed="0.20" angle="90.00" x="562.32" y="139.77"/>
        <vehicle id="3_4" eclass="HBEFA3/PC_G_EU4" CO2="2650.80" CO="161.81" HC="0.80" NOx="1.21" PMx="0.07" fuel="1.14" electricity="0.00" noise="60.39" route="routeright" type="3" waiting="0.00" lane="right_0" pos="84.51" speed="0.20" angle="90.00" x="690.80" y="136.47"/>
        <vehicle id="4_0" eclass="HBEFA3/PC_G_EU4" CO2="2650.81" CO="161.81" HC="0.80" NOx="1.21" PMx="0.07" fuel="1.14" electricity="0.00" noise="60.39" route="routeright" type="4" waiting="0.00" lane="right_1" pos="79.23" speed="0.20" angle="90.00" x="685.63" y="139.77"/>
        <vehicle id="4_1" eclass="HBEFA3/PC_G_EU4" CO2="2650.80" CO="161.81" HC="0.80" NOx="1.21" PMx="0.07" fuel="1.14" electricity="0.00" noise="60.39" route="routeright" type="4" waiting="0.00" lane="right_0" pos="205.20" speed="0.20" angle="90.00" x="809.08" y="136.47"/>
        <vehicle id="4_2" eclass="HBEFA3/PC_G_EU4" CO2="2650.80" CO="161.81" HC="0.80" NOx="1.21" PMx="0.07" fuel="1.14" electricity="0.00" noise="60.39" route="routeright" type="4" waiting="0.00" lane="right_1" pos="205.83" speed="0.20" angle="90.00" x="809.70" y="139.77"/>
        <vehicle id="4_3" eclass="HBEFA3/PC_G_EU4" CO2="2650.83" CO="161.81" HC="0.80" NOx="1.21" PMx="0.07" fuel="1.14" electricity="0.00" noise="60.39" route="routeright" type="4" waiting="0.00" lane="right_0" pos="321.53" speed="0.20" angle="90.00" x="923.10" y="136.47"/>
        <vehicle id="4_4" eclass="HBEFA3/PC_G_EU4" CO2="2650.83" CO="161.81" HC="0.80" NOx="1.21" PMx="0.07" fuel="1.14" electricity="0.00" noise="60.39" route="routeright" type="4" waiting="0.00" lane="right_1" pos="325.70" speed="0.20" angle="90.00" x="927.19" y="139.77"/>
    </timestep>
    <timestep time="0.60">
        <vehicle id="1_0" eclass="HBEFA3/PC_G_EU4" CO2="2677.52" CO="158.90" HC="0.79" NOx="1.22" PMx="0.07" fuel="1.15" electricity="0.00" noise="60.47" route="routemerge" type="1" waiting="0.00" lane="merge_0" pos="6.30" speed="0.40" angle="45.00" x="334.43" y="73.51"/>
        <vehicle id="1_1" eclass="HBEFA3/PC_G_EU4" CO2="2677.50" CO="158.90" HC="0.79" NOx="1.22" PMx="0.07" fuel="1.15" electricity="0.00" noise="60.47" route="routediverge" type="1" waiting="0.00" lane="diverge_0" pos="20.43" speed="0.40" angle="135.00" x="620.08" y="119.01"/>
        <vehicle id="1_2" eclass="HBEFA3/PC_G_EU4" CO2="2677.56" CO="158.90" HC="0.79" NOx="1.22" PMx="0.07" fuel="1.15" electricity="0.00" noise="60.47" route="routediverge" type="1" waiting="0.00" lane="diverge_0" pos="138.52" speed="0.40" angle="135.00" x="699.11" y="39.97"/>
        <vehicle id="1_3" eclass="HBEFA3/PC_G_EU4" CO2="2677.50" CO="158.90" HC="0.79" NOx="1.22" PMx="0.07" fuel="1.15" electricity="0.00" noise="60.47" route="routeinflow_highway" type="1" waiting="0.00" lane="inflow_highway_0" pos="67.20" speed="0.40" angle="90.00" x="67.20" y="136.47"/>
        <vehicle id="1_4" eclass="HBEFA3/PC_G_EU4" CO2="2677.50" CO="158.90" HC="0.79" NOx="1.22" PMx="0.07" fuel="1.15" electricity="0.00" noise="60.47" route="routeinflow_highway" type="1" waiting="0.00" lane="inflow_highway_1" pos="61.67" speed="0.40" angle="90.00" x="61.67" y="139.77"/>
        <vehicle id="2_0" eclass="HBEFA3/PC_G_EU4" CO2="2677.50" CO="158.90" HC="0.79" NOx="1.22" PMx="0.07" fuel="1.15" electricity="0.00" noise="60.47" route="routeleft" type="2" waiting="0.00" lane="left_0" pos="84.90" speed="0.40" angle="90.00" x="182.64" y="136.47"/>
        <vehicle id="2_1" eclass="HBEFA3/PC_G_EU4" CO2="2677.50" CO="158.90" HC="0.79" NOx="1.22" PMx="0.07" fuel="1.15" electricity="0.00" noise="60.47" route="routeleft" type="2" waiting="0.00" lane="left_1" pos="85.72" speed="0.40" angle="90.00" x="183.44" y="139.77"/>
        <vehicle id="2_2" eclass="HBEFA3/PC_G_EU4" CO2="2677.51" CO="158.90" HC="0.79" NOx="1.22" PMx="0.07" fuel="1.15" electricity="0.00" noise="60.47" route="routeleft" type="2" waiting="0.00" lane="left_0" pos="208.16" speed="0.40" angle="90.00" x="302.63" y="136.47"/>
        <vehicle id="2_3" eclass="HBEFA3/PC_G_EU4" CO2="2677.52" CO="158.90" HC="0.79" NOx="1.22" PMx="0.07" fuel="1.15" electricity="0.00" noise="60.47" route="routeleft" type="2" waiting="0.00" lane="left_1" pos="209.58" speed="0.40" angle="90.00" x="304.00" y="139.77"/>
        <vehicle id="2_4" eclass="HBEFA3/PC_G_EU4" CO2="2677.42" CO="158.90" HC="0.79" NOx="1.22" PMx="0.07" fuel="1.15" electricity="0.00" noise="60.46" route="routeinflow_merge" type="2" waiting="0.00" lane="inflow_merge_0" pos="27.08" speed="0.40" angle="45.00" x="278.90" y="17.98"/>
        <vehicle id="3_0" eclass="HBEFA3/PC_G_EU4" CO2="2677.50" CO="158.90" HC="0.79" NOx="1.22" PMx="0.07" fuel="1.15" electricity="0.00" noise="60.47" route="routecenter" type="3" waiting="0.00" lane="center_0" pos="40.06" speed="0.40" angle="90.00" x="439.79" y="136.47"/>
        <vehicle id="3_1" eclass="HBEFA3/PC_G_EU4" CO2="2677.50" CO="158.90" HC="0.79" NOx="1.22" PMx="0.07" fuel="1.15" electricity="0.00" noise="60.47" route="routecenter" type="3" waiting="0.00" lane="center_1" pos="43.57" speed="0.40" angle="90.00" x="443.32" y="139.77"/>
        <vehicle id="3_2" eclass="HBEFA3/PC_G_EU4" CO2="2677.51" CO="158.90" HC="0.79" NOx="1.22" PMx="0.07" fuel="1.15" electricity="0.00" noise="60.47" route="routecenter" type="3" waiting="0.00" lane="center_0" pos="163.24" speed="0.40" angle="90.00" x="563.53" y="136.47"/>
        <vehicle id="3_3" eclass="HBEFA3/PC_G_EU4" CO2="2677.50" CO="158.90" HC="0.79" NOx="1.22" PMx="0.07" fuel="1.15" electricity="0.00" noise="60.47" route="routecenter" type="3" waiting="0.00" lane="center_1" pos="162.12" speed="0.40" angle="90.00" x="562.40" y="139.77"/>
        <vehicle id="3_4" eclass="HBEFA3/PC_G_EU4" CO2="2677.50" CO="158.90" HC="0.79" NOx="1.22" PMx="0.07" fuel="1.15" electricity="0.00" noise="60.47" route="routeright" type="3" waiting="0.00" lane="right_0" pos="84.59" speed="0.40" angle="90.00" x="690.88" y="136.47"/>
        <vehicle id="4_0" eclass="HBEFA3/PC_G_EU4" CO2="2677.51" CO="158.90" HC="0.79" NOx="1.22" PMx="0.07" fuel="1.15" electricity="0.00" noise="60.47" route="routeright" type="4" waiting="0.00" lane="right_1" pos="79.31" speed="0.40" angle="90.00" x="685.71" y="139.77"/>
        <vehicle id="4_1" eclass="HBEFA3/PC_G_EU4" CO2="2677.50" CO="158.90" HC="0.79" NOx="1.22" PMx="0.07" fuel="1.15" electricity="0.00" noise="60.47" route="routeright" type="4" waiting="0.00" lane="right_0" pos="205.28" speed="0.40" angle="90.00" x="809.16" y="136.47"/>
        <vehicle id="4_2" eclass="HBEFA3/PC_G_EU4" CO2="2677.50" CO="158.90" HC="0.79" NOx="1.22" PMx="0.07" fuel="1.15" electricity="0.00" noise="60.47" route="routeright" type="4" waiting="0.00" lane="right_1" pos="205.91" speed="0.40" angle="90.00" x="809.78" y="139.77"/>
        <vehicle id="4_3" eclass="HBEFA3/PC_G_EU4" CO2="2677.56" CO="158.90" HC="0.79" NOx="1.22" PMx="0.07" fuel="1.15" electricity="0.00" noise="60.47" route="routeright" type="4" waiting="0.00" lane="right_0" pos="321.61" speed="0.40" angle="90.00" x="923.18" y="136.47"/>
        <vehicle id="4_4" eclass="HBEFA3/PC_G_EU4" CO2="2677.56" CO="158.90" HC="0.79" NOx="1.22" PMx="0.07" fuel="1.15" electricity="0.00" noise="60.47" route="routeright" type="4" waiting="0.00" lane="right_1" pos="325.78" speed="0.40" angle="90.00" x="927.26" y="139.77"/>
    </timestep>
    <timestep time="0.80">
        <vehicle id="1_0" eclass="HBEFA3/PC_G_EU4" CO2="2704.84" CO="156.03" HC="0.77" NOx="1.23" PMx="0.06" fuel="1.16" electricity="0.00" noise="60.54" route="routemerge" type="1" waiting="0.00" lane="merge_0" pos="6.41" speed="0.60" angle="45.00" x="334.51" y="73.59"/>
        <vehicle id="1_1" eclass="HBEFA3/PC_G_EU4" CO2="2704.80" CO="156.03" HC="0.77" NOx="1.23" PMx="0.06" fuel="1.16" electricity="0.00" noise="60.54" route="routediverge" type="1" waiting="0.00" lane="diverge_0" pos="20.55" speed="0.60" angle="135.00" x="620.16" y="118.93"/>
        <vehicle id="1_2" eclass="HBEFA3/PC_G_EU4" CO2="2704.91" CO="156.02" HC="0.77" NOx="1.23" PMx="0.06" fuel="1.16" electricity="0.00" noise="60.54" route="routediverge" type="1" waiting="0.00" lane="diverge_0" pos="138.64" speed="0.60" angle="135.00" x="699.19" y="39.89"/>
        <vehicle id="1_3" eclass="HBEFA3/PC_G_EU4" CO2="2704.80" CO="156.03" HC="0.77" NOx="1.23" PMx="0.06" fuel="1.16" electricity="0.00" noise="60.54" route="routeinflow_highway" type="1" waiting="0.00" lane="inflow_highway_0" pos="67.32" speed="0.60" angle="90.00" x="67.32" y="136.47"/>
        <vehicle id="1_4" eclass="HBEFA3/PC_G_EU4" CO2="2704.81" CO="156.03" HC="0.77" NOx="1.23" PMx="0.06" fuel="1.16" electricity="0.00" noise="60.54" route="routeinflow_highway" type="1" waiting="0.00" lane="inflow_highway_1" pos="61.79" speed="0.60" angle="90.00" x="61.79" y="139.77"/>
        <vehicle id="2_0" eclass="HBEFA3/PC_G_EU4" CO2="2704.81" CO="156.03" HC="0.77" NOx="1.23" PMx="0.06" fuel="1.16" electricity="0.00" noise="60.54" route="routeleft" type="2" waiting="0.00" lane="left_0" pos="85.01" speed="0.60" angle="90.00" x="182.75" y="136.47"/>
        <vehicle id="2_1" eclass="HBEFA3/PC_G_EU4" CO2="2704.81" CO="156.03" HC="0.77" NOx="1.23" PMx="0.06" fuel="1.16" electricity="0.00" noise="60.54" route="routeleft" type="2" waiting="0.00" lane="left_1" pos="85.84" speed="0.60" angle="90.00" x="183.56" y="139.77"/>
        <vehicle id="2_2" eclass="HBEFA3/PC_G_EU4" CO2="2704.83" CO="156.03" HC="0.77" NOx="1.23" PMx="0.06" fuel="1.16" electricity="0.00" noise="60.54" route="routeleft" type="2" waiting="0.00" lane="left_0" pos="208.28" speed="0.60" angle="90.00" x="302.74" y="136.47"/>
        <vehicle id="2_3" eclass="HBEFA3/PC_G_EU4" CO2="2704.84" CO="156.03" HC="0.77" NOx="1.23" PMx="0.06" fuel="1.16" electricity="0.00" noise="60.54" route="routeleft" type="2" waiting="0.00" lane="left_1" pos="209.70" speed="0.60" angle="90.00" x="304.12" y="139.77"/>
        <vehicle id="2_4" eclass="HBEFA3/PC_G_EU4" CO2="2704.67" CO="156.03" HC="0.77" NOx="1.23" PMx="0.06" fuel="1.16" electricity="0.00" noise="60.54" route="routeinflow_merge" type="2" waiting="0.00" lane="inflow_merge_0" pos="27.20" speed="0.60" angle="45.00" x="278.98" y="18.06"/>
        <vehicle id="3_0" eclass="HBEFA3/PC_G_EU4" CO2="2704.81" CO="156.03" HC="0.77" NOx="1.23" PMx="0.06" fuel="1.16" electricity="0.00" noise="60.54" route="routecenter" type="3" waiting="0.00" lane="center_0" pos="40.18" speed="0.60" angle="90.00" x="439.91" y="136.47"/>
        <vehicle id="3_1" eclass="HBEFA3/PC_G_EU4" CO2="2704.80" CO="156.03" HC="0.77" NOx="1.23" PMx="0.06" fuel="1.16" electricity="0.00" noise="60.54" route="routecenter" type="3" waiting="0.00" lane="center_1" pos="43.69" speed="0.60" angle="90.00" x="443.44" y="139.77"/>
        <vehicle id="3_2" eclass="HBEFA3/PC_G_EU4" CO2="2704.82" CO="156.03" HC="0.77" NOx="1.23" PMx="0.06" fuel="1.16" electricity="0.00" noise="60.54" route="routecenter" type="3" waiting="0.00" lane="center_0" pos="163.36" speed="0.60" angle="90.00" x="563.65" y="136.47"/>
        <vehicle id="3_3" eclass="HBEFA3/PC_G_EU4" CO2="2704.81" CO="156.03" HC="0.77" NOx="1.23" PMx="0.06" fuel="1.16" electricity="0.00" noise="60.54" route="routecenter" type="3" waiting="0.00" lane="center_1" pos="162.24" speed="0.60" angle="90.00" x="562.52" y="139.77"/>
        <vehicle id="3_4" eclass="HBEFA3/PC_G_EU4" CO2="2704.81" CO="156.03" HC="0.77" NOx="1.23" PMx="0.06" fuel="1.16" electricity="0.00" noise="60.54" route="routeright" type="3" waiting="0.00" lane="right_0" pos="84.71" speed="0.60" angle="90.00" x="691.00" y="136.47"/>
        <vehicle id="4_0" eclass="HBEFA3/PC_G_EU4" CO2="2704.82" CO="156.03" HC="0.77" NOx="1.23" PMx="0.06" fuel="1.16" electricity="0.00" noise="60.54" route="routeright" type="4" waiting="0.00" lane="right_1" pos="79.43" speed="0.60" angle="90.00" x="685.83" y="139.77"/>
        <vehicle id="4_1" eclass="HBEFA3/PC_G_EU4" CO2="2704.80" CO="156.03" HC="0.77" NOx="1.23" PMx="0.06" fuel="1.16" electricity="0.00" noise="60.54" route="routeright" type="4" waiting="0.00" lane="right_0" pos="205.40" speed="0.60" angle="90.00" x="809.28" y="136.47"/>
        <vehicle id="4_2" eclass="HBEFA3/PC_G_EU4" CO2="2704.81" CO="156.03" HC="0.77" NOx="1.23" PMx="0.06" fuel="1.16" electricity="0.00" noise="60.54" route="routeright" type="4" waiting="0.00" lane="right_1" pos="206.03" speed="0.60" angle="90.00" x="809.89" y="139.77"/>
        <vehicle id="4_3" eclass="HBEFA3/PC_G_EU4" CO2="2704.91" CO="156.02" HC="0.77" NOx="1.23" PMx="0.06" fuel="1.16" electricity="0.00" noise="60.54" route="routeright" type="4" waiting="0.00" lane="right_0" pos="321.73" speed="0.60" angle="90.00" x="923.29" y="136.47"/>
        <vehicle id="4_4" eclass="HBEFA3/PC_G_EU4" CO2="2704.91" CO="156.02" HC="0.77" NOx="1.23" PMx="0.06" fuel="1.16" electricity="0.00" noise="60.54" route="routeright" type="4" waiting="0.00" lane="right_1" pos="325.90" speed="0.60" angle="90.00" x="927.38" y="139.77"/>
    </timestep>
    <timestep time="1.00">
        <vehicle id="1_0" eclass="HBEFA3/PC_G_EU4" CO2="2732.77" CO="153.20" HC="0.76" NOx="1.23" PMx="0.06" fuel="1.17" electricity="0.00" noise="60.62" route="routemerge" type="1" waiting="0.00" lane="merge_0" pos="6.57" speed="0.80" angle="45.00" x="334.61" y="73.69"/>